# energy total s py pz px dxy dyz dz2 dxz dx2
-52.82846761683931	7.204214168403075e-26	2.3937319254009018e-26	1.0866119835672773e-26	3.618500434242533e-27	2.647922989828681e-26	2.7516269430014725e-27	6.477313138419484e-28	9.389718715824346e-28	8.728367960482037e-28	1.9298053373455364e-27
-52.80146599790738	1.1863257117850903e-25	3.9417841610867046e-26	1.7893356649617173e-26	5.958623666372664e-27	4.36036332630581e-26	4.5311337437263106e-27	1.0666261358630132e-27	1.5462151011833512e-27	1.437309759454917e-27	3.177831248366431e-27
-52.77446437897544	1.9486570129323946e-25	6.474769342531022e-26	2.9391603483943445e-26	9.787627193970705e-27	7.162326913916477e-26	7.442834171098317e-27	1.7520386513338708e-27	2.5398108382796096e-27	2.3609230708705988e-27	5.219901319267894e-27
-52.747462760043504	3.1928682629260775e-25	1.0608888791717815e-25	4.8158048003163174e-26	1.6036995755276195e-26	1.1735449665463005e-25	1.2195059906320727e-26	2.8707097087906617e-27	4.1614719090392005e-27	3.868364876000552e-27	8.552791562208963e-27
-52.720461141111564	5.218440413009797e-25	1.7339222745350242e-25	7.870976289852063e-26	2.6210948866136324e-26	1.918047966632563e-25	1.9931669022688854e-26	4.691902805657171e-27	6.801531225310279e-27	6.322475573329737e-27	1.3978726792577925e-26
-52.69345952217963	8.507747483481865e-25	2.82685471138788e-25	1.2832239794154187e-25	4.2732333163704605e-26	3.1270392048996944e-25	3.24950739177467e-26	7.649320704228943e-27	1.1088698076193394e-26	1.0307682255857929e-26	2.2789850660155555e-26
-52.6664579032477	1.3835746213279703e-24	4.597179740487001e-25	2.0868462952145795e-25	6.949356666976376e-26	5.0853555442126155e-25	5.284519747935164e-26	1.2439727459575631e-26	1.8033023749599334e-26	1.6762894763419724e-26	3.70620532148403e-26
-52.639456284315756	2.2444230324615334e-24	7.457506038896685e-25	3.3852643859766326e-25	1.1273187531394228e-25	8.249420692284778e-25	8.572503176777571e-26	2.0179620530558368e-26	2.9253018396509813e-26	2.7192625911054155e-26	6.012174882588299e-26
-52.61245466538382	3.631792103410805e-24	1.2067293532101841e-24	5.4778338527329e-25	1.8241602800025676e-25	1.3348722808142067e-24	1.3871515703751563e-25	3.265346391962813e-26	4.733549766818549e-26	4.4001492867683217e-26	9.728544461985435e-26
-52.58545304645189	5.862075084410731e-24	1.9477816663450104e-24	8.841770794254717e-25	2.9443768331614435e-25	2.154617146147286e-24	2.239001139529051e-25	5.27059511846247e-26	7.640421962640627e-26	7.102280297782098e-26	1.5702842143506096e-25
-52.55845142751995	9.438346284712371e-24	3.1360631839462004e-24	1.4235862444950361e-24	4.7406503256125705e-25	3.4690826099442996e-24	3.604946674990339e-25	8.486022637570829e-26	1.230160774322432e-25	1.1435162446135498e-25	2.5282661799723665e-25
-52.531449808588015	1.5158442167736325e-23	5.03666966368484e-24	2.286348594548125e-24	7.613714486545814e-25	5.571515022198211e-24	5.789719304068408e-25	1.3628964179495957e-25	1.975697902313277e-25	1.8365425826717914e-25	4.0605181795025896e-25
-52.504448189656074	2.4284399497847377e-23	8.068935903591762e-24	3.662817198558529e-24	1.2197459495987866e-24	8.925778459794354e-24	9.275349998587044e-25	2.1834117736769057e-25	3.1651430021610364e-25	2.9422108999719804e-25	6.505104188642435e-25
-52.47744657072414	3.8807377917900303e-23	1.2894461113957856e-23	5.853318766256144e-24	1.9491996112520314e-24	1.4263727537017777e-23	1.48223559198133e-24	3.4891736109283972e-25	5.058016800922449e-25	4.701762970081949e-25	1.0395399592418801e-24
-52.45044495179221	6.186077615650601e-23	2.055437433320793e-23	9.330463986726555e-24	3.1071153835049075e-24	2.2737049073872373e-23	2.362752885391153e-24	5.561905992919519e-25	8.062715440643058e-25	7.494830164750833e-25	1.657075333971733e-24
-52.423443332860266	9.836272757276991e-23	3.268281532405186e-23	1.4836055164244912e-23	4.94051906933274e-24	3.6153412587486134e-23	3.756933436347158e-24	8.843798578363965e-25	1.28202510823162e-24	1.1917275913845657e-24	2.6348594338545157e-24
-52.39644171392833	1.5601267922076572e-22	5.183806619533203e-23	2.3531400289601485e-23	7.836135052712057e-24	5.73427648720513e-23	5.958855202499506e-24	1.4027109103966199e-24	2.033414250739455e-24	1.8901937656849352e-24	4.179138681748313e-24
-52.3694400949964	2.4683307902636183e-22	8.201480516433376e-23	3.722984579613516e-23	1.2397821473379231e-23	9.072398012888542e-23	9.427711799414602e-24	2.2192776569639693e-24	3.2171353188776522e-24	2.9905412141656124e-24	6.611960474206414e-24
-52.34243847606446	3.895479829048825e-22	1.2943444227684766e-22	5.875554199376797e-23	1.9566041842756323e-23	1.4317912165321404e-22	1.4878662650793924e-23	3.502428194539164e-24	5.0772310556192916e-24	4.719623894705986e-24	1.0434889342638155e-23
-52.315436857132525	6.132431315372818e-22	2.0376124685953972e-22	9.249549263822358e-23	3.080170174600344e-23	2.2539871019312575e-22	2.342262846887914e-23	5.513672589165141e-24	7.992794749894157e-24	7.429834228115546e-24	1.642705006433522e-23
-52.288435238200584	9.629828641822632e-22	3.199686698682932e-22	1.4524675433248905e-22	4.836827268176863e-23	3.539462315767248e-22	3.678082750934661e-23	8.658184581460168e-24	1.2551179110899614e-23	1.166715561491584e-23	2.5795588906365071e-23
-52.26143361926865	1.5084070695245401e-21	5.011958380469398e-22	2.275131150706611e-22	7.576359587335866e-23	5.544179627615324e-22	5.761313340244086e-23	1.3562096823037493e-23	1.9660045894539788e-23	1.827532001394163e-23	4.040596163808799e-23
-52.23443200033672	2.3568540688932946e-21	7.831078718955196e-22	3.5548441939966275e-22	1.1837901259378366e-22	8.662663131479672e-22	9.001929954567441e-23	2.1190488798146222e-23	3.071840493681253e-23	2.85548000971692e-23	6.313345847855886e-23
-52.20743038140478	3.673338579865668e-21	1.2205339294759629e-21	5.54049845718658e-22	1.845028084146451e-22	1.3501427640461944e-21	1.403020111327131e-22	3.302700881454742e-23	4.7876999888313764e-23	4.450485510424161e-23	9.83983572703905e-23
-52.18042876247284	5.710884291307396e-21	1.8975457592532786e-21	8.613729701735756e-22	2.868437442682671e-22	2.099046665748304e-21	2.1812542830423117e-22	5.1346594368787533e-23	7.443365230400093e-23	6.919102946202242e-23	1.529784474249274e-22
-52.15342714354091	8.856454494009733e-21	2.942718992195795e-21	1.3358194861144657e-21	4.448380397062647e-22	3.2552071303120525e-21	3.3826949211776205e-22	7.962843472467266e-23	1.154319052911275e-22	1.073016318613633e-22	2.3723938168622855e-22
-52.12642552460897	1.3700315346667125e-20	4.552180355547158e-21	2.0664192692084985e-21	6.88133320147472e-22	5.03557763508392e-21	5.232792326399976e-22	1.2317961646011577e-22	1.7856507986624247e-22	1.659881157543526e-22	3.669927219593663e-22
-52.099423905677035	2.1140505388208398e-20	7.024319579035807e-21	3.188623519604567e-21	1.061835865071118e-21	7.770233995390867e-21	8.074549490530529e-22	1.9007440949205806e-22	2.755378937527166e-22	2.561307945637223e-22	5.66294382244485e-22
-52.072422286745095	3.253975665696387e-20	1.081192930678212e-20	4.907973182842634e-21	1.6343923722357894e-21	1.1960051027360917e-20	1.2428457623471178e-21	2.925651458250419e-22	4.241117159340815e-22	3.9424004178208855e-22	8.716481018540687e-22
-52.04542066781316	4.9960568305424314e-20	1.6600312605249434e-20	7.535555116015543e-21	2.5093971307898152e-21	1.8363104312463148e-20	1.9082281779361677e-21	4.491957678779174e-22	6.511684332896345e-22	6.053043587278573e-22	1.338302403074789e-21
-52.01841904888123	7.651640770449665e-20	2.542397595350471e-20	1.1540973769694207e-20	3.843231994481668e-21	2.8123754846504745e-20	2.9225201011024783e-21	6.87959479803113e-22	9.972878820003954e-22	9.270454013882978e-22	2.049658276017032e-21
-51.99141742994929	1.168949928964384e-19	3.8840499408860124e-20	1.763127790945481e-20	5.871349580713079e-21	4.296498252258764e-20	4.464767445253142e-21	1.0510035833101492e-21	1.5235681266090666e-21	1.4162578832753061e-21	3.1312864363750517e-21
-51.96441581101735	1.7813586988965104e-19	5.918890088462375e-20	2.686824264304631e-20	8.947329078542168e-21	6.54741861768315e-20	6.803843451389107e-21	1.6016206800514492e-21	2.3217601284359912e-21	2.1582304235436007e-21	4.771756423187141e-21
-51.93741419208542	2.707827425563496e-19	8.997251883411734e-20	4.084217540453727e-20	1.3600754965071002e-20	9.952672468026267e-20	1.0342461564897336e-20	2.434609277102596e-21	3.529286807368158e-21	3.2807067634782893e-21	7.253504259514889e-21
-51.91041257315348	4.1058655119573567e-19	1.3642489125154715e-19	6.19287913923504e-20	2.062275848318961e-20	1.509118867702922e-19	1.5682223983623467e-20	3.691586177325965e-21	5.351440367699746e-21	4.974519656637718e-21	1.09984531130694e-20
-51.883410954221546	6.21015715926771e-19	2.0634382994978161e-19	9.3667833727243e-20	3.119210103945021e-20	2.2825553587862404e-19	2.371949961147848e-20	5.583556094109906e-21	8.09409992598321e-21	7.524004079095689e-21	1.6635255621004768e-20
-51.856409335289605	9.369460737230012e-19	3.1131746962599313e-19	1.4131962687481504e-19	4.7060510736488936e-20	3.4437635363999127e-19	3.578636003761852e-20	8.424087899638274e-21	1.2211824850222143e-20	1.1351703185505203e-20	2.509813687272848e-20
-51.82940771635767	1.4100701986756192e-18	4.685216134502193e-19	2.1268096474813694e-19	7.082437933336366e-20	5.182740460299719e-19	5.385718681393636e-20	1.2677949859600225e-20	1.8378357934409544e-20	1.708390569679567e-20	3.777179480918561e-20
-51.80240609742574	2.116805748038695e-18	7.033474256736027e-19	3.192779270292396e-19	1.0632197918132127e-19	7.7803607125406625e-19	8.0850728230972e-20	1.9032213626204204e-20	2.758969999493055e-20	2.564646058956796e-20	5.670324245879049e-20
-51.7754044784938	3.169825917202639e-18	1.0532326361704206e-18	4.781050184179055e-19	1.5921260986904065e-19	1.165075680757857e-18	1.210705013965309e-19	2.8499924638400037e-20	4.1314393759155544e-20	3.840447596051277e-20	8.491067623281557e-20
-51.748402859561864	4.7348252126727544e-18	1.5732322751314422e-18	7.141539512475663e-19	2.3781870214711845e-19	1.740294211450887e-18	1.8084515562513765e-19	4.257084330438572e-20	6.171204304547282e-20	5.736544712948879e-20	1.2683258359125444e-19
-51.72140124062993	7.054831166609593e-18	2.3440966848404226e-18	1.064080582989128e-18	3.5434693613951155e-19	2.5930169032588974e-18	2.6945705067009757e-19	6.343003180082994e-20	9.19501830890029e-20	8.547380866906033e-20	1.8897898515264207e-19
-51.69439962169799	1.048536207603316e-17	3.483953321492899e-18	1.5815077604280616e-18	5.266541290054973e-19	3.853915193856588e-18	4.0048509542123237e-19	9.427395756246994e-20	1.3666251413497143e-19	1.2703689298592027e-19	2.8087321114551907e-19
-51.667398002766056	1.554513051905206e-17	5.165153925721685e-18	2.3446729345345374e-18	7.80793949215678e-19	5.713642893522762e-18	5.93741352610861e-19	1.397663689744518e-19	2.0260975321874207e-19	1.883392359712914e-19	4.1641010528205086e-19
-51.640396383834116	2.2988966501932997e-17	7.63850457179839e-18	3.467427163946145e-18	1.1546796689509557e-18	8.449639227778862e-18	8.780563152427823e-19	2.066939479441297e-19	2.9963008879604276e-19	2.785260877439051e-19	6.15809429731784e-19
-51.61339476490218	3.391241013527967e-17	1.1268018497008735e-17	5.115010836029788e-18	1.7033376001475317e-18	1.2464572075835312e-17	1.2952737905850507e-18	3.049067034713571e-19	4.420024048750134e-19	4.108706200699615e-19	9.08417607256917e-19
-51.58639314597025	4.99013159134166e-17	1.6580624859281887e-17	7.526618491756356e-18	2.5064213543260724e-18	1.834132530938844e-17	1.905964987969584e-18	4.486630649281833e-19	6.503961705545489e-19	6.045864782534432e-19	1.3367151969580755e-18
-51.55939152703831	7.324525148068677e-17	2.4337074379623093e-17	1.1047585778507777e-17	3.678930345126622e-18	2.692143391602987e-17	2.797579216607949e-18	6.585485521352838e-19	9.546528044760707e-19	8.874132441917187e-19	1.9620332439883722e-18
-51.532389908106374	1.0724105667294378e-16	3.563280238457594e-17	1.617517528527747e-17	5.3864568235703865e-18	3.941665770216898e-17	4.096038226216963e-18	9.6420507730124e-19	1.3977421566136616e-18	1.2992942490486494e-18	2.8726847681704868e-18
-51.50538828917444	1.5662346531626759e-16	5.204101077306365e-17	2.3623527265491638e-17	7.866814968969128e-18	5.756725715157821e-17	5.9821836688417e-18	1.408202669427035e-18	2.0413750813992847e-18	1.8975938328070237e-18	4.195499904689906e-18
-51.4783866702425	2.2817428932613257e-16	7.581508057238171e-17	3.4415542929263846e-17	1.1460638733927954e-17	8.386590019223672e-17	8.715044690255394e-18	2.0515166541352602e-18	2.9739433291605564e-18	2.7644780007303632e-18	6.112144224040736e-18
-51.45138505131057	3.315818257534722e-16	1.101741256431859e-16	5.001250888881759e-17	1.665454778609411e-17	1.2187353887425669e-16	1.2664662706050753e-17	2.9812545906261542e-18	4.321720755608394e-18	4.01732669147382e-18	8.88213981735877e-18
-51.424383432378626	4.806499091351771e-16	1.5970472242925557e-16	7.249645864372015e-17	2.414187529415978e-17	1.7666379882857812e-16	1.8358270766959672e-17	4.321526873393302e-18	6.2646216855412975e-18	5.8233822225380486e-18	1.2875252391031109e-17
-51.39738181344669	6.949941430345478e-16	2.3092451389952783e-16	1.0482601536028043e-16	3.490786555754709e-17	2.5544643233618154e-16	2.6545080575148206e-17	6.248697567646066e-18	9.05830899926691e-18	8.420300224391127e-18	1.8616928514558463e-17
-51.37038019451476	1.0024150049123094e-15	3.330707170278697e-16	1.511943275395132e-16	5.034886936596354e-17	3.68439557431294e-16	3.828692245683266e-17	9.012721021068842e-18	1.3065124348792288e-17	1.2144901329564086e-17	2.6851864391411023e-17
-51.34337857558282	1.4422086874851517e-15	4.7920021036221e-16	2.175284436037617e-16	7.243863962784934e-17	5.300865637579377e-16	5.508470187332848e-17	1.2966909676388832e-17	1.8797240502970055e-17	1.7473284141354367e-17	3.8632693939350955e-17
-51.316376956650885	2.0697733462914977e-15	6.877200439838762e-16	3.1218407278503574e-16	1.0395969217458448e-16	7.607491473174595e-16	7.905433354668818e-17	1.8609348898810332e-17	2.6976697563804148e-17	2.5076632880436998e-17	5.544337714080213e-17
-51.289375337718944	2.9629996962298964e-15	9.845108320255948e-16	4.469094796397769e-16	1.4882429018798473e-16	1.0890561858742897e-15	1.1317082820548725e-16	2.664035491093532e-17	3.861869576333291e-17	3.589864356492142e-17	7.937038605757301e-17
-51.26237371878701	4.2311123585789805e-15	1.405864451825652e-15	6.381790256585618e-16	2.1251852404245822e-16	1.555153392042527e-15	1.6160598493224475e-16	3.804196746317172e-17	5.51468304861418e-17	5.1262642606018e-17	1.1333953952220464e-16
-51.23537209985508	6.026867506683572e-15	2.002536934646297e-15	9.090329419934481e-16	3.0271497014378793e-16	2.2151865798246463e-15	2.301942762185412e-16	5.418761904097861e-17	7.855207211742481e-17	7.301936911701485e-17	1.6144274358143163e-16
-51.208370480923136	8.563333628360071e-15	2.845324180664718e-15	1.2916083745498304e-15	4.301155490033635e-16	3.1474694636226547e-15	3.2707378362424307e-16	7.699301095585749e-17	1.1161148063683544e-16	1.0375028462402425e-16	2.2938750067854366e-16
-51.1813688619912	1.2136912460228198e-14	4.0327110850939516e-15	1.8306116354916513e-15	6.096078126323016e-16	4.460945043070508e-15	4.635654746931878e-16	1.0912309494119202e-16	1.5818825244092746e-16	1.4704648646635773e-16	3.2511357539811845e-16
-51.15436724305927	1.71588314920356e-14	5.7013354981893304e-15	2.588068223536129e-15	8.618467393050457e-16	6.306760727610967e-15	6.553760485974234e-16	1.5427522280812617e-16	2.2364218266408087e-16	2.0789025970696452e-16	4.596365896175285e-16
-51.12736562412733	2.419810371964973e-14	8.040262388074614e-15	3.64980245214228e-15	1.2154125018785562e-15	8.894058267174928e-15	9.242387694021012e-16	2.1756539838905698e-16	3.1538958763888173e-16	2.9317556212375607e-16	6.481987928255523e-16
-51.100364005195395	3.403996410935335e-14	1.1310400423537696e-14	5.134251434148258e-15	1.7097455960257778e-15	1.2511452173009519e-14	1.3001454269471129e-15	3.060536809649915e-16	4.436649454501985e-16	4.12416019496424e-16	9.118344097733635e-16
-51.073362386263454	4.776513265702508e-14	1.5870838573250345e-14	7.204420347711211e-15	2.399128041228115e-15	1.7556162986168466e-14	1.8243737622156648e-15	4.29456841151698e-16	6.225539831268249e-16	5.787052484640094e-16	1.2794928737087488e-15
-51.04636076733152	6.685702050098014e-14	2.221446729468059e-14	1.0084052361826214e-14	3.3580680987440645e-15	2.4573421058057388e-14	2.553582167722366e-15	6.011122535755811e-16	8.71390963955872e-16	8.100157274216187e-16	1.7909105749964478e-15
-51.01935914839959	9.334631619856228e-14	3.10160199646569e-14	1.4079436624829828e-14	4.688562512325983e-15	3.430960946546088e-14	3.5653321098216144e-15	8.392778757600482e-16	1.21664317499016e-15	1.1309505521060066e-15	2.5004839186108487e-15
-50.99235752946765	1.3000542782057136e-13	4.319667981513364e-14	1.960873602476122e-14	6.529862897434284e-15	4.778373150248293e-14	4.965514775806538e-15	1.1688804823571762e-15	1.6944452181799194e-15	1.5750992264321224e-15	3.482477877983516e-15
-50.96535591053571	1.8060922194503255e-13	6.001071522316436e-14	2.7241314538595032e-14	9.071572080387874e-15	6.638324568836465e-14	6.898309906537402e-15	1.6238599772561664e-15	2.3539973926162095e-15	2.1881966828434157e-15	4.838010455267416e-15
-50.93835429160378	2.5028365853968754e-13	8.316132001283494e-14	3.775032195854861e-14	1.257115526086221e-14	9.199220702332746e-14	9.559501779446144e-15	2.25030398119458e-15	3.262109681833042e-15	3.03234721780646e-15	6.704391623834038e-15
-50.91135267267184	3.4597060733464687e-13	1.149550571753581e-13	5.218280233106166e-14	1.737728672750255e-14	1.2716211089328233e-13	1.3214232698991223e-14	3.1106270123244267e-15	4.5092600112149154e-15	4.191656040681966e-15	9.267574444229655e-15
-50.884351053739906	4.770457705581344e-13	1.585071749684728e-13	7.19528955135829e-14	2.396088679197571e-14	1.753390113928306e-13	1.8220604324708833e-14	4.2891262535903515e-15	6.217648042001165e-15	5.779715804530079e-15	1.2778707466441942e-14
-50.857349434807965	6.561377612759012e-13	2.18013760629426e-13	9.896537915449239e-14	3.2956262365362086e-14	2.411645746009125e-13	2.5060962057014104e-14	5.899345920993567e-15	8.551870759791581e-15	7.949530266271392e-15	1.757607552163748e-14
-50.83034781587603	9.002106619976468e-13	2.9911144020398395e-13	1.3577895158047336e-13	4.5215481633061547e-14	3.3087397427682196e-13	3.4383242943712835e-14	8.093810598612587e-15	1.1733032176757418e-14	1.0906630179547798e-14	2.4114098404675167e-14
-50.8033461969441	1.2319906442246747e-12	4.0935139888436385e-13	1.8582140965406912e-13	6.188003025744316e-14	4.52820247439132e-13	4.705546484921609e-14	1.1076852048149207e-14	1.6057337409851522e-14	1.4926357706935572e-14	3.3001545975514134e-14
-50.77634457801216	1.681840495130645e-12	5.58822226638319e-13	2.536723848369005e-13	8.44749651337476e-14	6.181632785225363e-13	6.423732324246895e-14	1.5121463184037814e-14	2.1920524632841838e-14	2.0376577514868723e-14	4.505175142492421e-14
-50.749342959080224	2.290215443384301e-12	7.609659110433873e-13	3.4543375713906575e-13	1.1503226577640802e-13	8.417724403531384e-13	8.747399044548363e-14	2.059137855586672e-14	2.984987349115203e-14	2.774743068120522e-14	6.134839589859328e-14
-50.72234134014829	3.110871064877423e-12	1.0336437223287801e-12	4.69213506051379e-13	1.562519614121814e-13	1.14340566238227e-12	1.1881864022565644e-13	2.796991684821269e-14	4.054601588232956e-14	3.7690200534178775e-14	8.333143921243463e-14
-50.69533972121635	4.2150411937555704e-12	1.4005244002815834e-12	6.357558684819782e-13	2.117119798923127e-13	1.5492450245647027e-12	1.6099202127470279e-13	3.7897544793981346e-14	5.493738947434121e-14	5.1067930729057294e-14	1.1290903426291024e-13
-50.668338102284416	5.696862995769641e-12	1.8928867334450118e-12	8.592596077651041e-13	2.8614063970338105e-13	2.0938907457428234e-12	2.1758966542914095e-13	5.1220654460972414e-14	7.425094634198013e-14	6.90211534980335e-14	1.526028493831923e-13
-50.641336483352475	7.680400506934777e-12	2.551953257364901e-12	1.1584373814450611e-12	3.8576943067984265e-13	2.8229426875798775e-12	2.9335014843948474e-13	6.905471253487757e-14	1.001036954997761e-13	9.305298433501808e-14	2.0573620905593608e-13
-50.61433486442054	1.0328710413597677e-11	3.431902524488002e-12	1.5578831435378169e-12	5.187883739349499e-13	3.796332483316673e-12	3.945013530349486e-13	9.286577167170245e-14	1.3462086337980587e-13	1.2513895974834632e-13	2.76676940485431e-13
-50.58733324548861	1.3855508749499622e-11	4.603745575720515e-12	2.089831847654359e-12	6.959320229495261e-13	5.092611631534681e-12	5.292060725213415e-13	1.245753670875391e-13	1.8058795387349316e-13	1.6786838679571882e-13	3.711498913624448e-13
-50.56033162655667	1.8540139409718032e-11	6.16029950020735e-12	2.7964171696089407e-12	9.312313117607027e-13	6.814453169054513e-12	7.081337252795864e-13	1.6669510033929656e-13	2.41645843273655e-13	2.2462569625471974e-13	4.966378939392645e-13
-50.533330007624734	2.4746720753513247e-11	8.222549240395173e-12	3.73255942028092e-12	1.242975265299181e-12	9.095688994255003e-12	9.45191648700949e-13	2.2249878908651761e-13	3.2254033121389435e-13	2.9982241602889427e-13	6.628946482527096e-13
-50.5063283886928	3.294856197228338e-11	1.0947760371280615e-11	4.9696483099749885e-12	1.6549374069740796e-12	1.2110284082627758e-11	1.2584576682293332e-12	2.9624199841451353e-13	4.294403762354049e-13	3.9919299114997994e-13	8.825987673966957e-13
-50.47932676976086	4.375920442778379e-11	1.4539793144866752e-11	6.600224975072711e-12	2.197934936165852e-12	1.608374569460817e-11	1.6713657023636205e-12	3.934411388142363e-13	5.703426793976424e-13	5.301708695603646e-13	1.1721852869344344e-12
-50.452325150828926	5.797176427712259e-11	1.926217478570445e-11	8.743916113035225e-12	2.9118048785135367e-12	2.130758369756825e-11	2.2142084289116685e-12	5.212272032011708e-13	7.55584464660972e-13	7.023651633314641e-13	1.5528995421958412e-12
-50.425323531896986	7.660864237887077e-11	2.545461650061156e-11	1.1554931849738558e-11	3.847900986638857e-12	2.8157581346201403e-11	2.926035920983699e-12	6.887927191896409e-13	9.984913837749881e-13	9.281629161727112e-13	2.0521287555593373e-12
-50.39832191296505	1.00984138393031e-10	3.355381813640821e-11	1.5231509995616422e-11	5.072238825046588e-12	3.711680894631332e-11	3.857047147207014e-12	9.079547271971972e-13	1.3161936113038527e-12	1.2234877135673202e-12	2.705079290371063e-12
-50.37132029403312	1.3278307267145248e-10	4.411959170988141e-11	2.002777482531528e-11	6.669444940224264e-12	4.880452110428623e-11	5.071592874150967e-12	1.1938616904616383e-12	1.7306505815328819e-12	1.608752237613241e-12	3.5568827079865597e-12
-50.34431867510118	1.7415919850680802e-10	5.7867560633947586e-11	2.626858093209437e-11	8.747700125707626e-12	6.40123278101678e-11	6.651934440955094e-12	1.565878348305794e-12	2.2699336686889988e-12	2.1100505948286924e-12	4.665231952112007e-12
-50.317317056169244	2.278579972184181e-10	7.570996057014869e-11	3.436803487683709e-11	1.1444907479410053e-11	8.374932727054418e-11	8.702933808917497e-12	2.0486898067315293e-12	2.9698266682818707e-12	2.760646057770157e-12	6.103670679777005e-12
-50.290315437237304	2.9736941027583835e-10	9.88063873857838e-11	4.4852532421592064e-11	1.493636426599339e-11	1.0929824186883164e-10	1.1357887019454899e-11	2.6736748084189383e-12	3.8758164725217894e-12	3.6028215132071024e-12	7.965684520034698e-12
-50.26331381830537	3.8711719934479576e-10	1.286267153755224e-10	5.838932060174849e-11	1.9444273704135833e-11	1.4228501639170905e-10	1.478575660635749e-11	3.480608345681837e-12	5.045561148441302e-12	4.690173681262685e-12	1.036977348993665e-11
-50.23631219937344	5.026929622007733e-10	1.67028853166985e-10	7.582179558437924e-11	2.524949997508143e-11	1.847648290602159e-10	1.920010957314154e-11	4.519765803539072e-12	6.551940054851644e-12	6.0904483692956095e-12	1.3465720613283792e-11
-50.209310580441496	6.511443974775207e-10	2.1635452473259376e-10	9.821298334561732e-11	3.2706048382000145e-11	2.393280410777589e-10	2.4870127316796312e-11	5.854514893994101e-12	8.486811033189186e-12	7.889032985567188e-12	1.744231371000376e-11
-50.18230896150956	8.413292337700255e-10	2.7954686850046263e-10	1.2689892513986744e-10	4.225884416683539e-11	3.092302802185218e-10	3.21341234842805e-11	7.56449803296671e-12	1.0965623463127494e-11	1.0193244619158963e-11	2.253682614480449e-11
-50.15530734257763	1.084348349916135e-09	3.6029434906884816e-10	1.6355400824111468e-10	5.446548958358081e-11	3.985516298983714e-10	4.141608637970413e-11	9.749526799122324e-12	1.4133063493596683e-11	1.3137577572458655e-11	2.904661887933802e-11
-50.12830572364569	1.3940740457408691e-09	4.6320628424749936e-10	2.102706494037078e-10	7.002280106561943e-11	5.123907890982227e-10	5.324585543511426e-11	1.2534331990839646e-11	1.8169939466035167e-11	1.6890103703399568e-11	3.73432913304309e-11
-50.101304104713755	1.7877922090926046e-09	5.940262160159258e-10	2.696561588898979e-10	8.979906836882734e-11	6.571010925403603e-10	6.828364767298329e-11	1.607433786035508e-11	2.3301551868689434e-11	2.1660252695494538e-11	4.788988318007078e-11
-50.07430248578182	2.2869802982041863e-09	7.598904083251844e-10	3.4495009166531415e-10	1.1487313706410954e-10	8.405764466106622e-10	8.734977126676446e-11	2.056265764628382e-11	2.980783352337334e-11	2.770823781920394e-11	6.126171428329004e-11
-50.04730086684988	2.918246649377161e-09	9.69639947809263e-10	4.401659341732115e-10	1.4658159626343313e-10	1.0725965560887947e-09	1.1146050043357135e-10	2.6238539827782695e-11	3.803559251500089e-11	3.535643625515209e-11	7.817154601095125e-11
-50.02029924791795	3.7144606569640524e-09	1.2341962647993727e-09	5.602615842383386e-10	1.865755564219479e-10	1.365242300155695e-09	1.4187124004709011e-10	3.339753084074329e-11	4.841324299803553e-11	4.500308196043857e-11	9.949985550239001e-11
-49.99329762898601	4.716107879294068e-09	1.567011389415998e-09	7.113437617111154e-10	2.3688872866874656e-10	1.733393772069235e-09	1.801282804411099e-10	4.2403660542996325e-11	6.146846776195645e-11	5.7138683660715476e-11	1.2633113502219463e-10
-49.96629601005407	5.972909117641058e-09	1.9846059166245843e-09	9.009122410424246e-10	3.00018768256263e-10	2.1953253315798238e-09	2.2813063353385713e-10	5.3704001647117664e-11	7.784932153335176e-11	7.236564104988268e-11	1.5999726237375285e-10
-49.93929439112214	7.545748003744083e-09	2.5072094776938674e-09	1.1381506253402914e-09	3.790241208164279e-10	2.7734140355565798e-09	2.882036509485358e-10	6.784600373197422e-11	9.83493555427423e-11	9.142159877525468e-11	2.021291353384093e-10
-49.9122927721902	9.5089576111822e-09	3.1595205022972394e-09	1.4342712840985653e-09	4.776389110194507e-10	3.4949800090376553e-09	3.6318635309389634e-10	8.549805626853257e-11	1.239374218442049e-10	1.1520715023554686e-10	2.547179232871065e-10
-49.885291153258265	1.195302305881878e-08	3.971604199474809e-09	1.8029230509965144e-09	6.004087380677975e-10	4.39327968922077e-09	4.565346444959483e-10	1.0747379319140595e-10	1.5579290000876998e-10	1.4481858140084712e-10	3.2018746196191676e-10
-49.858289534326325	1.4987763964065655e-08	4.979949974691101e-09	2.2606713184992866e-09	7.528505894360269e-10	5.508675405262274e-09	5.724428536351192e-10	1.347607135918425e-10	1.9534717864448075e-10	1.8158642833568517e-10	4.0147950196983684e-10
-49.83128791539439	1.874606787145317e-08	6.228711914859744e-09	2.8275612637034476e-09	9.416404505098944e-10	6.890007425565325e-09	7.159863128998111e-10	1.6855375858123737e-10	2.443323189677763e-10	2.271207101606327e-10	5.021537162053009e-10
-49.80428629646246	2.3388253343735475e-08	7.771158485475099e-09	3.527776082360956e-09	1.1748325691287228e-09	8.596197380417587e-09	8.932879827878171e-10	2.1029455252745505e-10	3.0483792626801573e-10	2.8336379080456826e-10	6.265045739652508e-10
-49.77728467753052	2.9107149144078043e-08	9.67136015585428e-09	4.390403278131947e-09	1.462114724835567e-09	1.069811480914339e-08	1.1117124197834643e-09	2.61717086679946e-10	3.793773560816217e-10	3.5265191669246656e-10	7.796973968753575e-10
-49.75028305859858	3.6133983710339335e-08	1.200614625061486e-08	5.45032322961407e-09	1.8151042455464285e-09	1.32807414325829e-08	1.3800906837200875e-09	3.249006933511159e-10	4.709644832944184e-10	4.377865716841227e-10	9.679261199313327e-10
-49.72328143966665	4.47451867390821e-08	1.48673648557406e-08	6.749235410543046e-09	2.2476899001084422e-09	1.6445670544693488e-08	1.7089800707361735e-09	4.023312276440094e-10	5.832023617887139e-10	5.421168828622293e-10	1.1985954849653927e-09
-49.69627982073471	5.527021192846498e-08	1.8364482009713204e-08	8.336838734387406e-09	2.7764251624815076e-09	2.031398156677381e-08	2.1109628333599286e-09	4.969714391666187e-10	7.203851966642485e-10	6.696343983861075e-10	1.4805305875321509e-09
-49.669278201802776	6.810049650076828e-08	2.2627558592868983e-08	1.0272183492180911e-08	3.4209786784532287e-09	2.5029532212812806e-08	2.6009882992753584e-09	6.123415758021116e-10	8.876151369161252e-10	8.250816382508968e-10	1.8242168742078517e-09
-49.642276582870835	8.369967871349869e-08	2.781064518384478e-08	1.2625213203371715e-08	4.204648052887998e-09	3.076271275534676e-08	3.1967630125287925e-09	7.526113125299674e-10	1.090935469542343e-09	1.0140758865019346e-09	2.242073836944384e-09
-49.6152749639389	1.0261519879887599e-07	3.409563655641362e-08	1.5478515347702575e-08	5.154943296044171e-09	3.7714708419907845e-08	3.919193680987534e-09	9.227041371856545e-10	1.337481851517829e-09	1.2432497447203534e-09	2.7487657643963826e-09
-49.58827334500697	1.254914112208461e-07	4.169662830217319e-08	1.8929300328154364e-08	6.30424640053479e-09	4.612231681600517e-08	4.792887805489568e-09	1.128415348131009e-09	1.6356532483978786e-09	1.5204099962796377e-09	3.361552975680495e-09
-49.56127172607503	1.5308433633136154e-07	5.0864818126460915e-08	2.309162805966201e-08	7.690553542635244e-09	5.6263367358016825e-08	5.846716871088575e-09	1.3765448218575398e-09	1.9953042513266513e-09	1.8547163332166645e-09	4.1006869670971194e-09