-46.6175804 4.17905021E-03
-46.5175819 0.00000000
-46.4175797 0.00000000
-46.3175812 0.00000000
-46.2175789 0.00000000
-46.1175804 0.00000000
-46.0175819 0.00000000
-45.9175797 0.00000000
-45.8175812 0.00000000
-45.7175789 0.00000000
-45.6175804 3.76738003E-03
-45.5175819 0.00000000
-45.4175797 0.00000000
-45.3175812 0.00000000
-45.2175789 0.00000000
-45.1175804 3.53206997E-03
-45.0175819 0.00000000
-44.9175797 0.00000000
-44.8175812 0.00000000
-44.7175789 0.00000000
-44.6175804 0.00000000
-44.5175819 0.00000000
-44.4175797 0.00000000
-44.3175812 0.00000000
-44.2175789 0.00000000
-44.1175804 0.00000000
-44.0175819 0.00000000
-43.9175797 0.00000000
-43.8175812 0.00000000
-43.7175789 0.00000000
-43.6175804 0.00000000
-43.5175819 0.00000000
-43.4175797 0.00000000
-43.3175812 0.00000000
-43.2175789 0.00000000
-43.1175804 0.00000000
-43.0175819 0.00000000
-42.9175797 0.00000000
-42.8175812 0.00000000
-42.7175789 0.00000000
-42.6175804 0.00000000
-42.5175819 0.00000000
-42.4175797 0.00000000
-42.3175812 0.00000000
-42.2175789 0.00000000
-42.1175804 0.00000000
-42.0175819 0.00000000
-41.9175797 0.00000000
-41.8175812 0.00000000
-41.7175789 0.00000000
-41.6175804 0.00000000
-41.5175819 0.00000000
-41.4175797 0.00000000
-41.3175812 0.00000000
-41.2175789 0.00000000
-41.1175804 0.00000000
-41.0175819 0.00000000
-40.9175797 0.00000000
-40.8175812 0.00000000
-40.7175789 0.00000000
-40.6175804 0.00000000
-40.5175819 0.00000000
-40.4175797 0.00000000
-40.3175812 0.00000000
-40.2175789 0.00000000
-40.1175804 0.00000000
-40.0175819 0.00000000
-39.9175797 0.00000000
-39.8175812 0.00000000
-39.7175789 0.00000000
-39.6175804 0.00000000
-39.5175819 0.00000000
-39.4175797 0.00000000
-39.3175812 0.00000000
-39.2175789 0.00000000
-39.1175804 0.00000000
-39.0175819 0.00000000
-38.9175797 0.00000000
-38.8175812 0.00000000
-38.7175789 0.00000000
-38.6175804 0.00000000
-38.5175819 0.00000000
-38.4175797 0.00000000
-38.3175812 0.00000000
-38.2175789 0.00000000
-38.1175804 0.00000000
-38.0175819 0.00000000
-37.9175797 0.00000000
-37.8175812 0.00000000
-37.7175789 0.00000000
-37.6175804 0.00000000
-37.5175819 0.00000000
-37.4175797 0.00000000
-37.3175812 0.00000000
-37.2175789 0.00000000
-37.1175804 0.00000000
-37.0175819 0.00000000
-36.9175797 0.00000000
-36.8175812 0.00000000
-36.7175789 0.00000000
-36.6175804 0.00000000
-36.5175819 0.00000000
-36.4175797 0.00000000
-36.3175812 0.00000000
-36.2175789 0.00000000
-36.1175804 0.00000000
-36.0175819 0.00000000
-35.9175797 0.00000000
-35.8175812 0.00000000
-35.7175789 0.00000000
-35.6175804 0.00000000
-35.5175819 0.00000000
-35.4175797 0.00000000
-35.3175812 0.00000000
-35.2175789 0.00000000
-35.1175804 0.00000000
-35.0175819 0.00000000
-34.9175797 0.00000000
-34.8175812 1.19770004E-03
-34.7175789 0.00000000
-34.6175804 1.48076005E-03
-34.5175819 0.00000000
-34.4175797 5.67850017E-04
-34.3175812 4.09450004E-04
-34.2175789 0.00000000
-34.1175804 2.80459994E-04
-34.0175819 1.83550001E-04
-33.9175797 0.00000000
-33.8175812 1.79640003E-04
-33.7175789 7.61699994E-05
-33.6175804 1.10999999E-05
-33.5175819 5.56699997E-05
-33.4175797 2.75999992E-05
-33.3175812 0.00000000
-33.2175789 1.60199997E-05
-33.1175804 5.12999986E-06
-33.0175819 0.00000000
-32.9175797 2.40499994E-05
-32.8175812 0.00000000
-32.7175789 0.00000000
-32.6175804 3.26999998E-06
-32.5175819 0.00000000
-32.4175797 0.00000000
-32.3175812 0.00000000
-32.2175789 0.00000000
-32.1175804 0.00000000
-32.0175819 0.00000000
-31.9175797 0.00000000
-31.8175812 0.00000000
-31.7175789 0.00000000
-31.6175804 0.00000000
-31.5175819 0.00000000
-31.4175797 0.00000000
-31.3175812 0.00000000
-31.2175789 0.00000000
-31.1175804 0.00000000
-31.0175819 0.00000000
-30.9175797 0.00000000
-30.8175812 0.00000000
-30.7175789 0.00000000
-30.6175804 0.00000000
-30.5175819 0.00000000
-30.4175797 0.00000000
-30.3175774 0.00000000
-30.2175789 0.00000000
-30.1175804 0.00000000
-30.0175819 0.00000000
-29.9175797 0.00000000
-29.8175774 0.00000000
-29.7175789 0.00000000
-29.6175804 0.00000000
-29.5175819 0.00000000
-29.4175797 0.00000000
-29.3175774 0.00000000
-29.2175789 0.00000000
-29.1175804 0.00000000
-29.0175819 0.00000000
-28.9175797 0.00000000
-28.8175774 0.00000000
-28.7175789 0.00000000
-28.6175804 0.00000000
-28.5175819 0.00000000
-28.4175797 0.00000000
-28.3175774 0.00000000
-28.2175789 0.00000000
-28.1175804 0.00000000
-28.0175819 0.00000000
-27.9175797 0.00000000
-27.8175774 0.00000000
-27.7175808 0.00000000
-27.6175804 0.00000000
-27.5175800 0.00000000
-27.4175797 0.00000000
-27.3175793 0.00000000
-27.2175808 0.00000000
-27.1175804 0.00000000
-27.0175800 0.00000000
-26.9175797 0.00000000
-26.8175793 0.00000000
-26.7175808 0.00000000
-26.6175804 0.00000000
-26.5175800 0.00000000
-26.4175797 0.00000000
-26.3175793 0.00000000
-26.2175808 0.00000000
-26.1175804 0.00000000
-26.0175800 0.00000000
-25.9175797 0.00000000
-25.8175793 0.00000000
-25.7175808 0.00000000
-25.6175804 0.00000000
-25.5175800 0.00000000
-25.4175797 0.00000000
-25.3175793 0.00000000
-25.2175808 0.00000000
-25.1175804 0.00000000
-25.0175800 0.00000000
-24.9175797 0.00000000
-24.8175793 0.00000000
-24.7175808 0.00000000
-24.6175804 0.00000000
-24.5175800 0.00000000
-24.4175797 0.00000000
-24.3175793 0.00000000
-24.2175808 0.00000000
-24.1175804 0.00000000
-24.0175800 0.00000000
-23.9175797 0.220040426
-23.8175793 0.00000000
-23.7175808 0.00000000
-23.6175804 0.237071693
-23.5175800 0.684177637
-23.4175797 0.00000000
-23.3175793 0.875611544
-23.2175808 1.04857934
-23.1175804 0.872049868
-23.0175800 0.613510609
-22.9175797 1.22420573
-22.8175793 0.409244895
-22.7175808 1.21507883
-22.6175804 1.01430440
-22.5175800 0.808015704
-22.4175797 0.569069028
-22.3175793 0.754208446
-22.2175808 0.742280364
-22.1175804 0.386427104
-22.0175800 0.539982140
-21.9175797 0.596567452
-21.8175793 0.578183711
-21.7175808 0.354531974
-21.6175804 0.586262524
-21.5175800 0.190078869
-21.4175797 0.00000000
-21.3175793 0.195730776
-21.2175808 0.194215938
-21.1175804 0.575704694
-21.0175800 0.00000000
-20.9175797 0.360500693
-20.8175793 0.00000000
-20.7175808 0.00000000
-20.6175804 0.00000000
-20.5175800 0.175464436
-20.4175797 0.178825483
-20.3175793 0.00000000
-20.2175808 0.169955671
-20.1175804 0.00000000
-20.0175800 0.00000000
-19.9175797 0.00000000
-19.8175793 0.00000000
-19.7175808 0.00000000
-19.6175804 0.00000000
-19.5175800 0.00000000
-19.4175797 0.00000000
-19.3175793 0.00000000
-19.2175808 0.00000000
-19.1175804 0.00000000
-19.0175800 0.00000000
-18.9175797 0.00000000
-18.8175793 0.00000000
-18.7175808 0.00000000
-18.6175804 0.00000000
-18.5175800 0.00000000
-18.4175797 0.00000000
-18.3175793 0.00000000
-18.2175808 0.00000000
-18.1175804 0.00000000
-18.0175800 0.00000000
-17.9175797 0.00000000
-17.8175793 0.00000000
-17.7175808 0.00000000
-17.6175804 0.00000000
-17.5175800 0.00000000
-17.4175797 0.00000000
-17.3175793 0.00000000
-17.2175808 0.00000000
-17.1175804 0.00000000
-17.0175800 0.00000000
-16.9175797 0.00000000
-16.8175793 0.00000000
-16.7175808 0.00000000
-16.6175804 0.00000000
-16.5175800 0.00000000
-16.4175797 0.00000000
-16.3175793 0.00000000
-16.2175808 0.00000000
-16.1175804 0.00000000
-16.0175800 0.00000000
-15.9175797 0.00000000
-15.8175793 0.00000000
-15.7175808 0.00000000
-15.6175804 0.00000000
-15.5175800 0.00000000
-15.4175797 0.00000000
-15.3175793 0.00000000
-15.2175808 0.00000000
-15.1175804 0.00000000
-15.0175800 0.00000000
-14.9175797 0.00000000
-14.8175793 0.00000000
-14.7175808 0.00000000
-14.6175804 0.00000000
-14.5175781 0.00000000
-14.4175797 0.00000000
-14.3175812 0.00000000
-14.2175789 0.00000000
-14.1175804 0.00000000
-14.0175781 0.00000000
-13.9175797 0.00000000
-13.8175812 0.00000000
-13.7175789 0.00000000
-13.6175804 0.00000000
-13.5175781 0.00000000
-13.4175797 0.00000000
-13.3175812 0.00000000
-13.2175789 0.00000000
-13.1175804 0.00000000
-13.0175781 3.41999985E-05
-12.9175797 0.00000000
-12.8175812 0.00000000
-12.7175789 1.14819995E-04
-12.6175804 0.00000000
-12.5175781 0.00000000
-12.4175797 4.33899986E-05
-12.3175812 3.00299998E-05
-12.2175789 9.35400021E-05
-12.1175804 3.32099989E-05
-12.0175781 3.20239982E-04
-11.9175797 0.260927469
-11.8175802 2.75190017E-04
-11.7175779 4.61198995E-03
-11.6175795 0.514540970
-11.5175772 0.254300922
-11.4175787 0.760232687
-11.3175802 0.732733667
-11.2175779 0.864777803
-11.1175795 0.878545344
-11.0175772 0.581036448
-10.9175787 0.671946883
-10.8175802 1.78082085
-10.7175779 0.767679811
-10.6175795 0.774942756
-10.5175772 0.481567234
-10.4175787 1.44229269
-10.3175802 0.523234606
-10.2175779 1.46289730
-10.1175795 0.734225273
-10.0175772 0.730621517
-9.91757870 0.722574830
-9.81758022 0.493259132
-9.71757793 0.718469679
-9.61757946 0.473049194
-9.51757717 0.233651549
-9.41757870 0.239998013
-9.31758022 0.238087237
-9.21757793 0.231207192
-9.11757946 0.232644871
-9.01757717 0.235597447
-8.91757870 0.227403551
-8.81758022 0.469227493
-8.71757793 0.228005186
-8.61757946 0.471407950
-8.51757717 0.463540137
-8.41757870 0.663764477
-8.31758022 0.191096932
-8.21757793 9.73461047E-02
-8.11757946 0.198093206
-8.01757717 0.184412420
-7.91757870 0.191446021
-7.81758022 0.176558197
-7.71757793 0.354000390
-7.61757946 0.223371625
-7.51757717 0.170564502
-7.41757870 0.328568459
-7.31758022 0.177744091
-7.21757793 0.245557249
-7.11757946 0.234455913
-7.01757717 0.313734174
-6.91757870 0.308898836
-6.81758022 0.296084702
-6.71757793 0.304239571
-6.61757946 0.301069796
-6.51757717 0.302430779
-6.41757870 0.212991685
-6.31758022 0.209174708
-6.21757793 0.184026733
-6.11757946 0.130878270
-6.01757717 7.20337629E-02
-5.91757870 0.210877776
-5.81758022 0.211110771
-5.71757793 0.128396749
-5.61757946 5.17036617E-02
-5.51757717 0.113127381
-5.41757870 8.24947953E-02
-5.31758022 0.107890494
-5.21757793 6.27972037E-02
-5.11757946 6.40825182E-02
-5.01757717 5.23554794E-02
-4.91757870 9.31134075E-02
-4.81758022 7.11704642E-02
-4.71757793 3.54864597E-02
-4.61757946 2.62428895E-02
-4.51757717 3.55815403E-02
-4.41757870 3.05013508E-02
-4.31758022 7.58547988E-03
-4.21757793 1.68656297E-02
-4.11757946 3.40756513E-02
-4.01757717 1.75176505E-02
-3.91757870 9.80055984E-03
-3.81758022 1.04301795E-02
-3.71757793 1.80580784E-02
-3.61757946 1.75222307E-02
-3.51757717 8.97505134E-03
-3.41757870 1.31943105E-02
-3.31758022 1.02873202E-02
-3.21757793 9.52965021E-03
-3.11757946 8.14293977E-03
-3.01757717 6.14767009E-03
-2.91757870 1.20636690E-02
-2.81758022 6.65525021E-03
-2.71757793 4.35986044E-03
-2.61757946 3.88995977E-03
-2.51757717 4.03349986E-03
-2.41757870 1.62562006E-03
-2.31758022 1.13493502E-02
-2.21757793 4.45532985E-03
-2.11757946 5.31370053E-03
-2.01757717 7.75420014E-03
-1.91757870 6.40886975E-03
-1.81758022 5.81761962E-03
-1.71757793 7.16063986E-03
-1.61757946 5.70252072E-03
-1.51757717 6.85447967E-03
-1.41757870 8.56713951E-03
-1.31758022 6.18853047E-03
-1.21757793 1.29963197E-02
-1.11757946 9.70549975E-03
-1.01757717 6.74053002E-03
-0.917578697 2.70517985E-03
-0.817580223 1.75433792E-02
-0.717577934 1.59057900E-02
-0.617579460 4.65417979E-03
-0.517577171 6.13849983E-03
-0.417578697 1.05254604E-02
-0.317580223 7.16412999E-03
-0.217577934 2.14723516E-02
-0.117579460 6.00636005E-03
-1.75771713E-02 1.54981995E-03
8.24213028E-02 2.67309975E-03
0.182419538 1.68714998E-03
0.282421827 1.12077408E-02
0.382420301 3.67837981E-03
0.482422590 4.07648971E-03
0.582421064 8.69362988E-03
0.682419538 4.69637699E-02
0.782421827 3.41471005E-03
0.882420301 0.00000000
0.982422590 3.15085016E-02
1.08242106 8.33710015E-04
1.18241954 1.87355001E-03
1.28242183 1.43223200E-02
1.38242030 2.37658601E-02
1.48242259 1.18543496E-02
1.58242106 0.00000000
1.68241954 0.00000000
1.78242183 1.49010005E-03
1.88242030 0.109167807
1.98242259 8.29578005E-03
2.08242106 9.78811383E-02
2.18241954 0.00000000
2.28242183 9.81101692E-02
2.38242030 3.35413008E-03
2.48242259 0.273176581
2.58242106 6.80101011E-03
2.68241954 0.205192164
2.78242183 0.00000000
2.88242030 7.83103984E-03
2.98242259 1.81575902E-02
3.08242106 0.00000000
3.18241954 0.178118080
3.28242183 0.190589994
3.38242030 4.90179881E-02
3.48242259 0.233467609
3.58242106 0.178576484
3.68241954 0.00000000
3.78242183 0.116906241
3.88242030 0.339554310
3.98242259 0.247976586
4.08242130 0.172712624
4.18241978 0.349694490
4.28242207 0.170551509
4.38242054 0.190211728
4.48242283 0.161902308
4.58242130 0.179934934
4.68241978 0.142110005
4.78242207 0.330493242
4.88242054 0.277624071
4.98242283 0.199174061
5.08242130 0.139638677
5.18241978 0.265597194
5.28242207 0.449991107
5.38242054 0.202037066
5.48242283 0.423490465
5.58242130 0.00000000
5.68241978 0.307486832
5.78242207 0.202179074
5.88242054 0.129265293
5.98242283 0.255172074
6.08242130 0.419995815
6.18241978 0.302744269
6.28242207 0.310450792
6.38242054 0.215466842
6.48242283 0.372635603
6.58242130 0.258373648
6.68241978 0.516859412
6.78242207 0.243937224
6.88242054 0.332604259
6.98242283 0.461802363
7.08242130 0.502053380
7.18241978 0.453889012
7.28242207 0.319689929
7.38242054 0.408799082
7.48242283 0.455459297
7.58242130 0.269539237
7.68241978 0.554937899
7.78242207 0.684289813
7.88242054 0.414191127
7.98242283 0.427266598
8.08242130 0.878273010
8.18241978 0.514666080
8.28242207 0.506978035
8.38242054 0.655098498
8.48242283 0.899686396
8.58242130 0.497935534
8.68241978 0.852366269
8.78242207 0.674144983
8.88242054 0.643073916
8.98242283 0.434134126
9.08242130 0.562782168
9.18241978 0.704314172
9.28242207 0.814119816
9.38242054 0.726113439
9.48242283 0.666133881
9.58242130 0.931189060
9.68241978 0.454088151
9.78242207 0.712356150
9.88242054 0.701784074
9.98242283 0.753174782
10.0824213 0.495823294
10.1824198 0.692181587
10.2824221 0.556747377
10.3824205 0.949301600
10.4824228 0.478463680
10.5824213 0.686287045
10.6824198 0.557555676
10.7824221 0.558802724
10.8824205 0.654859483
10.9824228 0.838541567
11.0824213 0.657379448
11.1824198 0.784253895
11.2824221 0.620384157
11.3824205 0.747634292
11.4824228 0.517705798
11.5824213 0.606678665
11.6824198 0.365421265
11.7824221 0.648869932
11.8824205 0.660701454
11.9824228 0.642309904
12.0824213 0.468635261
12.1824198 0.463334084
12.2824221 0.514780164
12.3824205 0.501906037
12.4824228 0.393906325
12.5824213 0.361710072
12.6824198 0.466981858
12.7824221 0.443701476
12.8824205 0.318445355
12.9824228 0.371411800
13.0824213 0.490503848
13.1824198 0.345566094
13.2824221 0.360008866
13.3824205 0.320705414
13.4824228 0.248292357
13.5824213 0.321430445
13.6824198 0.360977888
13.7824221 0.300197542
13.8824205 0.511841297
13.9824228 0.212941587
14.0824213 0.199220091
14.1824198 0.360985458
14.2824221 0.179906502
14.3824205 0.396563470
14.4824228 0.291153371
14.5824213 0.330180049
14.6824198 0.353647232
14.7824221 0.389655262
14.8824205 0.300381333
14.9824228 0.184304893
15.0824213 0.337385535
15.1824198 0.223374754
15.2824221 0.266541481
15.3824205 0.448014557
15.4824228 0.335525781
15.5824213 0.214369267
15.6824198 0.277657956
15.7824221 0.285455436
15.8824205 0.231097713
15.9824228 0.336282164
16.0824203 0.292722821
16.1824188 0.195333630
16.2824211 0.245609269
16.3824196 0.215911105
16.4824219 0.243755579
16.5824203 0.288556457
16.6824188 0.219547212
16.7824211 0.305378050
16.8824196 0.275299132
16.9824219 0.184124351
17.0824203 0.246577084
17.1824188 0.263935536
17.2824211 0.213240057
17.3824196 0.298725516
17.4824181 0.139988542
17.5824242 0.234226912
17.6824226 0.237256706
17.7824211 0.302154601
17.8824196 0.170871243
17.9824181 0.242525011
18.0824242 0.230805874
18.1824226 0.199402332
18.2824211 0.218709022
18.3824196 0.287038803
18.4824181 0.125845522
18.5824242 0.244640261
18.6824226 0.165685609
18.7824211 0.294160426
18.8824196 0.212393031
18.9824181 0.236689985
19.0824242 0.250558496
19.1824226 0.127402186
19.2824211 0.378792763
19.3824196 0.185751602
19.4824181 0.151528940
19.5824242 0.253811121
19.6824226 0.228062570
19.7824211 0.133997411
19.8824196 0.306714177
19.9824181 0.226023793
20.0824242 0.176049814
20.1824226 0.131606042
20.2824211 0.182823837
20.3824196 0.218179256
20.4824181 0.133572564
20.5824242 0.204010025
20.6824226 0.225616276
20.7824211 0.122747540
20.8824196 0.273201168
20.9824181 0.127000332
21.0824242 0.288457721
21.1824226 0.172211409
21.2824211 9.66351926E-02
21.3824196 0.241617411
21.4824181 0.240458533
21.5824242 0.165556237
21.6824226 0.205358356
21.7824211 0.186048791
21.8824196 0.167347580
21.9824181 0.131991923
22.0824242 0.192906350
22.1824226 0.195575401
22.2824211 0.136454254
22.3824196 0.227544233
22.4824181 0.174999744
22.5824242 0.263078004
22.6824226 0.190303922
22.7824211 0.102214113
22.8824196 0.177871883
22.9824181 0.114510566
23.0824242 0.262128651
23.1824226 0.124123156
23.2824211 0.143746048
23.3824196 0.175772965
23.4824181 0.169396564
23.5824242 0.106076136
23.6824226 0.271080375
23.7824211 0.263564169
23.8824196 0.156499743
23.9824181 0.234629244
24.0824242 0.165529221
24.1824226 0.112096369
24.2824211 0.156025484
24.3824196 0.154549390
24.4824181 0.115265146
24.5824242 0.171305656
24.6824226 0.210420534
24.7824211 0.102560729
24.8824196 0.163188621
24.9824181 0.183690846
25.0824242 0.200023919
25.1824226 0.118552923
25.2824211 0.147322834
25.3824196 0.220618874
25.4824181 0.144814119
25.5824242 8.78823027E-02
25.6824226 0.144659206
25.7824211 0.134766504
25.8824196 0.184611931
25.9824181 0.105910614
26.0824242 0.198799342
26.1824226 0.106653310
26.2824211 0.128676504
26.3824196 0.187812075
26.4824181 0.162799686
26.5824242 0.173419178
26.6824226 0.142653227
26.7824211 0.120728835
26.8824196 0.130187795
26.9824181 0.166500300
27.0824242 0.105628930
27.1824226 7.02452958E-02
27.2824211 0.192314059
27.3824196 0.140644118
27.4824181 0.171760380
27.5824242 9.09711495E-02
27.6824226 0.144095570
27.7824211 0.207108960
27.8824196 0.139303640
27.9824181 0.129238218
28.0824242 0.103576884
28.1824226 0.112869978
28.2824211 0.110339627
28.3824196 0.104065314
28.4824181 0.156084269
28.5824242 7.95161128E-02
28.6824226 0.160585523
28.7824211 0.153463036
28.8824196 0.102195047
28.9824181 0.138184011
29.0824242 8.60683620E-02
29.1824226 0.139530927
29.2824211 0.132794231
29.3824196 0.126952946
29.4824181 0.144234955
29.5824242 7.71910325E-02
29.6824226 0.113024466
29.7824211 9.20199603E-02
29.8824196 0.127619922
29.9824181 8.94783884E-02
30.0824242 0.121347219
30.1824226 0.152218625
30.2824211 7.42744580E-02
30.3824196 9.19877291E-02
30.4824181 0.149421304
30.5824242 0.213213682
30.6824226 0.110396832
30.7824211 0.160249144
30.8824196 0.106518462
30.9824181 0.106824070
31.0824242 0.113292769
31.1824226 0.163781747
31.2824211 9.18518975E-02
31.3824196 9.32631046E-02
31.4824181 0.116433769
31.5824242 0.165816218
31.6824226 0.143359989
31.7824211 7.72624761E-02
31.8824196 0.137542948
31.9824181 0.106372312
32.0824242 7.80117512E-02
32.1824226 0.157930151
32.2824211 2.43296605E-02
32.3824196 0.122457616
32.4824181 0.119755454
32.5824242 0.106777489
32.6824226 7.70872831E-02
32.7824211 9.21885818E-02
32.8824196 0.171598792
32.9824181 9.46415365E-02
33.0824242 0.125806063
33.1824226 7.41325915E-02
33.2824211 0.110702775
33.3824196 8.44571516E-02
33.4824181 6.11772314E-02
33.5824242 8.27133581E-02
33.6824226 8.31619352E-02
33.7824211 7.86805451E-02
33.8824196 0.172858879
33.9824181 0.100649402
34.0824242 6.70693666E-02
34.1824226 0.127684325
34.2824211 9.83597934E-02
34.3824196 9.15613770E-02
34.4824181 0.128103942
34.5824242 0.121949524
34.6824226 5.32360487E-02
34.7824211 6.34731501E-02
34.8824196 9.05115157E-02
34.9824181 0.117419258
35.0824242 9.10475403E-02
35.1824226 9.41933766E-02
35.2824211 8.47717077E-02
35.3824196 0.111348093
35.4824181 0.120170742
35.5824242 9.28711221E-02
35.6824226 7.64194131E-02
35.7824211 7.48191625E-02
35.8824196 7.38046318E-02
35.9824181 7.48304427E-02
36.0824242 9.58933830E-02
36.1824226 7.70566761E-02
36.2824211 8.23106989E-02
36.3824196 9.97368246E-02
36.4824181 8.74984488E-02
36.5824242 7.58802593E-02
36.6824226 9.48184878E-02
36.7824211 0.119948313
36.8824196 5.38432114E-02
36.9824181 0.102524191
37.0824242 9.35387164E-02
37.1824226 5.24712801E-02
37.2824211 0.108146980
37.3824196 6.26501814E-02
37.4824181 7.13982284E-02
37.5824242 9.56633985E-02
37.6824226 5.69297783E-02
37.7824211 0.108531818
37.8824196 8.15466568E-02
37.9824181 4.64847796E-02
38.0824242 8.05871338E-02
38.1824226 5.20044491E-02
38.2824211 4.57115993E-02
38.3824196 0.101875491
38.4824181 4.55586724E-02
38.5824242 8.01055282E-02
38.6824226 6.48999512E-02
38.7824211 8.34142119E-02
38.8824196 3.40299085E-02
38.9824181 4.34211269E-02
39.0824242 7.03641921E-02
39.1824226 9.31371823E-02
39.2824211 4.35451791E-02
39.3824196 5.63549213E-02
39.4824181 6.21888489E-02
39.5824242 5.11785597E-02
39.6824226 5.65762371E-02
39.7824211 6.49649948E-02
39.8824196 2.67744288E-02
39.9824181 5.15462123E-02
40.0824242 6.99681044E-02
40.1824226 5.27103990E-02
40.2824211 8.72909650E-02
40.3824196 5.71902916E-02
40.4824181 7.39395469E-02
40.5824242 7.45574310E-02
40.6824226 5.74041083E-02
40.7824211 7.07093021E-03
40.8824196 3.86787392E-02
40.9824181 8.27623978E-02
41.0824242 5.51807210E-02
41.1824226 4.22375500E-02
41.2824211 5.73651418E-02
41.3824196 3.58281694E-02
41.4824181 4.15352881E-02
41.5824242 4.55504991E-02
41.6824226 4.74578403E-02
41.7824211 5.98767623E-02
41.8824196 2.44361404E-02
41.9824181 8.64933878E-02
42.0824242 3.74220796E-02
42.1824226 0.00000000
42.2824211 6.61920980E-02
42.3824196 5.23879193E-02
42.4824181 3.87915373E-02
42.5824242 3.28706801E-02
42.6824226 6.34784102E-02
42.7824211 4.28680927E-02
42.8824196 3.20901573E-02
42.9824181 4.78613079E-02
43.0824242 4.95731905E-02
43.1824226 4.50687483E-02
43.2824211 4.14049998E-02
43.3824196 3.30598019E-02
43.4824181 5.06084710E-02
43.5824242 2.60000303E-02
43.6824226 3.48485000E-02
43.7824211 3.99834216E-02
43.8824196 4.05764207E-02
43.9824181 0.00000000
44.0824242 5.73008284E-02
44.1824226 2.85320617E-02
44.2824211 3.08625903E-02
44.3824196 6.43554004E-03
44.4824181 5.94026409E-02
44.5824242 1.49826696E-02
44.6824226 4.01363298E-02
44.7824211 3.61280106E-02
44.8824196 3.74009311E-02
44.9824181 3.11199389E-02
45.0824242 3.62181701E-02
45.1824226 4.59978506E-02
45.2824211 3.11501008E-02
45.3824196 3.77023108E-02
45.4824181 1.00925704E-02
45.5824242 2.87228487E-02
45.6824226 1.85177699E-02
45.7824211 3.89464609E-02
45.8824196 2.01385505E-02
45.9824181 1.95687301E-02
46.0824242 3.06294691E-02
46.1824226 1.11720804E-02
46.2824211 2.06857100E-02
46.3824196 3.15105617E-02
46.4824181 4.14596274E-02
46.5824242 2.47733295E-02
46.6824226 1.89235304E-02
46.7824211 3.28086987E-02
46.8824196 2.67662592E-02
46.9824181 3.21984217E-02
47.0824242 1.68673098E-02
47.1824226 3.00408714E-02
47.2824211 2.14882493E-02
47.3824196 5.29677682E-02
47.4824181 1.31416805E-02
47.5824242 2.37983894E-02
47.6824226 1.92033499E-02
47.7824211 1.79940909E-02
47.8824196 2.75179707E-02
47.9824181 3.59768718E-02
48.0824242 2.47028098E-02
48.1824226 4.22513708E-02
48.2824211 1.27162896E-02
48.3824196 2.95500718E-02
48.4824181 2.98448503E-02
48.5824242 2.88440101E-02
48.6824226 9.94865969E-03
48.7824211 1.79190002E-02
48.8824196 4.01664600E-02
48.9824181 2.76659802E-02
49.0824242 2.05530003E-02
49.1824226 1.59439500E-02
49.2824211 8.83029960E-03
49.3824196 4.22949195E-02
49.4824181 9.05625988E-03
49.5824242 2.52681896E-02
49.6824226 4.26712297E-02
49.7824211 1.27926096E-02
49.8824196 2.72935107E-02
49.9824181 2.71414593E-02
50.0824242 3.05974707E-02
50.1824226 2.56453492E-02
50.2824211 4.19785008E-02
50.3824196 2.02533100E-02
50.4824181 2.76252702E-02
50.5824242 4.53559197E-02
50.6824226 2.18656510E-02
50.7824211 2.10625399E-02
50.8824196 3.73067595E-02
50.9824181 3.60796116E-02
51.0824242 0.00000000
51.1824226 5.39781488E-02
51.2824211 2.54536606E-02
51.3824196 3.97787690E-02
51.4824181 2.76878811E-02
51.5824242 3.62943783E-02
51.6824226 3.28856111E-02
51.7824211 4.45862710E-02
51.8824196 4.03150618E-02
51.9824181 5.85936308E-02
52.0824242 4.60609198E-02
52.1824226 1.54433502E-02
52.2824211 4.13735881E-02
52.3824196 2.06669308E-02
52.4824181 4.84763011E-02
52.5824242 4.87642102E-02
52.6824226 4.59589586E-02
52.7824211 4.97709401E-02
52.8824196 3.54291387E-02
52.9824181 3.94431725E-02
53.0824242 3.77172306E-02
53.1824226 4.15965319E-02
53.2824211 4.04704586E-02
53.3824196 2.77030803E-02
53.4824181 3.57195809E-02
53.5824242 4.83205020E-02
53.6824226 4.26006168E-02
53.7824211 4.74918820E-02
53.8824196 8.09391215E-02
53.9824181 5.61364591E-02
54.0824242 4.74831089E-02
54.1824226 7.22260401E-02
54.2824211 4.48046774E-02
54.3824196 3.99061888E-02
54.4824181 3.81086990E-02
54.5824242 5.93532212E-02
54.6824226 7.03109503E-02
54.7824211 0.104957238
54.8824196 3.82917784E-02
54.9824181 9.77940112E-02
55.0824242 3.40468511E-02
55.1824226 0.119223185
55.2824211 5.72219007E-02
55.3824196 9.23969448E-02
55.4824181 3.97664011E-02
55.5824242 8.68799388E-02
55.6824226 6.40172511E-02
55.7824211 9.98197347E-02
55.8824196 7.14060292E-02
55.9824181 7.68725127E-02
56.0824242 8.22641701E-02
56.1824226 4.43692580E-02
56.2824211 7.68157914E-02
56.3824196 5.32669276E-02
56.4824181 0.158845171
56.5824242 4.79963906E-02
56.6824226 0.115622543
56.7824211 8.13286602E-02
56.8824196 6.51719794E-02
56.9824181 3.79583687E-02
57.0824242 7.12011009E-02
57.1824226 0.121094406
57.2824211 9.04635340E-02
57.3824196 8.98156017E-02
57.4824181 8.31520855E-02
57.5824242 0.114094183
57.6824226 6.19662479E-02
57.7824211 0.119582877
57.8824196 5.14903292E-02
57.9824181 5.83913401E-02
58.0824242 8.64166766E-02
58.1824226 7.93422610E-02
58.2824211 3.98534387E-02
58.3824196 0.127727732
58.4824181 7.33304173E-02
58.5824242 9.24415365E-02
58.6824226 5.79669774E-02
58.7824211 0.134347916
58.8824196 9.54958424E-02
58.9824181 6.15298897E-02
59.0824242 0.108057946
59.1824226 0.116556719
59.2824211 4.00713310E-02
59.3824196 6.91843480E-02
59.4824181 0.107684396
59.5824242 5.50919473E-02
59.6824226 0.138692200
59.7824211 4.34334613E-02
59.8824196 0.161507279
59.9824181 3.41395997E-02
60.0824242 0.113830730
60.1824226 7.42685199E-02
60.2824211 0.102793708
60.3824196 0.112261079
60.4824181 7.14215115E-02
60.5824242 7.43390694E-02
60.6824226 7.92069510E-02
60.7824211 0.145373538
60.8824196 6.32000491E-02
60.9824181 0.180647001
61.0824242 2.54452694E-02
61.1824226 0.146399096
61.2824211 6.92142025E-02
61.3824196 0.115009502
61.4824181 9.42790061E-02
61.5824242 9.06413421E-02
61.6824226 5.37189022E-02
61.7824211 6.65976405E-02
61.8824196 9.16101858E-02
61.9824181 0.118241638
62.0824242 0.123643070
62.1824226 0.111289203
62.2824211 0.100535512
62.3824196 4.15691808E-02
62.4824181 0.128559738
62.5824242 0.131105512
62.6824226 0.156842157
62.7824211 6.89905882E-02
62.8824196 6.70578703E-02
62.9824181 8.18971917E-02
63.0824242 9.22703743E-02
63.1824226 0.109604344
63.2824211 0.135793269
63.3824196 6.66012987E-02
63.4824181 0.118829310
63.5824242 0.111713588
63.6824226 8.94878060E-02
63.7824211 0.134539872
63.8824196 0.134130895
63.9824181 4.31681499E-02
64.0824280 0.164503545
64.1824188 0.142436713
64.2824249 9.75233391E-02
64.3824158 0.123596206
64.4824219 9.90918204E-02
64.5824280 7.73572102E-02
64.6824188 0.137928724
64.7824249 4.67905290E-02
64.8824158 8.27200860E-02
64.9824219 0.139348820
65.0824280 9.54605043E-02
65.1824188 0.101306364
65.2824249 0.108002178
65.3824158 9.86748338E-02
65.4824219 0.149679661
65.5824280 9.82198790E-02
65.6824188 0.106383115
65.7824249 0.152235016
65.8824158 8.47039595E-02
65.9824219 9.44082886E-02
66.0824280 8.91986340E-02
66.1824188 8.28300565E-02
66.2824249 0.126031697
66.3824158 5.74568287E-02
66.4824219 9.37117040E-02
66.5824280 8.17856938E-02
66.6824188 8.92265812E-02
66.7824249 0.163580626
66.8824158 4.87869792E-02
66.9824219 0.113021627
67.0824280 0.169876561
67.1824188 5.63163906E-02
67.2824249 5.72514795E-02
67.3824158 0.243013024
67.4824219 5.52003011E-02
67.5824280 0.121907786
67.6824188 0.126823038
67.7824249 0.00000000
67.8824158 0.119889006
67.9824219 0.181040227
68.0824280 7.20425099E-02
68.1824265 0.109404966
68.2824249 0.110539228
68.3824234 6.82083219E-02
68.4824219 0.116342179
68.5824280 7.09590167E-02
68.6824265 0.162086129
68.7824249 0.135790437
68.8824234 0.198154181
68.9824219 8.05933177E-02
69.0824280 0.153488651
69.1824265 0.133066654
69.2824249 7.62189031E-02
69.3824234 7.24845082E-02
69.4824219 0.224118963
69.5824280 7.14462325E-02
69.6824265 0.179183841
69.7824249 8.25594664E-02
69.8824234 0.154320031
69.9824219 5.82978018E-02
70.0824280 0.352071643
70.1824265 5.81887998E-02
70.2824249 0.160140663
70.3824234 0.188683987
70.4824219 0.170113280
70.5824280 0.182071254
70.6824265 0.167126536
70.7824249 9.59134623E-02
70.8824234 0.333938897
70.9824219 0.00000000
71.0824280 0.250031650
71.1824265 9.08228010E-02
71.2824249 0.247319311
71.3824234 7.10379109E-02
71.4824219 8.30283910E-02
71.5824280 9.86646116E-02
71.6824265 8.83250907E-02
71.7824249 0.115814880
71.8824234 0.124907613
71.9824219 0.103616938
72.0824280 0.196908787
72.1824265 0.270687044
72.2824249 0.168017551
72.3824234 9.37462971E-02
72.4824219 0.104576707
72.5824280 0.174436033
72.6824265 0.136529058
72.7824249 0.104194589
72.8824234 9.43192095E-02
72.9824219 0.178022504
73.0824280 6.52738884E-02
73.1824265 0.143179953
73.2824249 0.167634726
73.3824234 8.10221508E-02
73.4824219 5.92316911E-02
73.5824280 6.41839802E-02
73.6824265 0.176659197
73.7824249 0.226242512
73.8824234 7.57967383E-02
73.9824219 0.118086942
74.0824280 0.00000000
74.1824265 0.181862682
74.2824249 0.163074121
74.3824234 8.68959501E-02
74.4824219 8.13647285E-02
74.5824280 8.10199901E-02
74.6824265 0.170227036
74.7824249 8.96868631E-02
74.8824234 0.140104756
74.9824219 6.08862713E-02
75.0824280 3.82531583E-02
75.1824265 0.123711877
75.2824249 0.221064776
75.3824234 9.42488089E-02
75.4824219 0.266804636
75.5824280 0.115252383
75.6824265 0.00000000
75.7824249 0.221844524
75.8824234 8.48109275E-02
75.9824219 9.68853384E-02
76.0824280 9.83766317E-02
76.1824265 0.106286474
76.2824249 0.213277996
76.3824234 0.103060603
76.4824219 4.34059203E-02
76.5824280 0.109857723
76.6824265 0.159243912
76.7824249 0.109004691
76.8824234 3.90562192E-02
76.9824219 9.44906026E-02
77.0824280 0.00000000
77.1824265 0.229206860