  -46.6175804       4.17905021E-03           1
  -46.5175819       0.00000000               0
  -46.4175797       0.00000000               0
  -46.3175812       0.00000000               0
  -46.2175789       0.00000000               0
  -46.1175804       0.00000000               0
  -46.0175819       0.00000000               0
  -45.9175797       0.00000000               0
  -45.8175812       0.00000000               0
  -45.7175789       0.00000000               0
  -45.6175804       3.76738003E-03           1
  -45.5175819       0.00000000               0
  -45.4175797       0.00000000               0
  -45.3175812       0.00000000               0
  -45.2175789       0.00000000               0
  -45.1175804       3.53206997E-03           1
  -45.0175819       0.00000000               0
  -44.9175797       0.00000000               0
  -44.8175812       0.00000000               0
  -44.7175789       0.00000000               0
  -44.6175804       0.00000000               0
  -44.5175819       0.00000000               0
  -44.4175797       0.00000000               0
  -44.3175812       0.00000000               0
  -44.2175789       0.00000000               0
  -44.1175804       0.00000000               0
  -44.0175819       0.00000000               0
  -43.9175797       0.00000000               0
  -43.8175812       0.00000000               0
  -43.7175789       0.00000000               0
  -43.6175804       0.00000000               0
  -43.5175819       0.00000000               0
  -43.4175797       0.00000000               0
  -43.3175812       0.00000000               0
  -43.2175789       0.00000000               0
  -43.1175804       0.00000000               0
  -43.0175819       0.00000000               0
  -42.9175797       0.00000000               0
  -42.8175812       0.00000000               0
  -42.7175789       0.00000000               0
  -42.6175804       0.00000000               0
  -42.5175819       0.00000000               0
  -42.4175797       0.00000000               0
  -42.3175812       0.00000000               0
  -42.2175789       0.00000000               0
  -42.1175804       0.00000000               0
  -42.0175819       0.00000000               0
  -41.9175797       0.00000000               0
  -41.8175812       0.00000000               0
  -41.7175789       0.00000000               0
  -41.6175804       0.00000000               0
  -41.5175819       0.00000000               0
  -41.4175797       0.00000000               0
  -41.3175812       0.00000000               0
  -41.2175789       0.00000000               0
  -41.1175804       0.00000000               0
  -41.0175819       0.00000000               0
  -40.9175797       0.00000000               0
  -40.8175812       0.00000000               0
  -40.7175789       0.00000000               0
  -40.6175804       0.00000000               0
  -40.5175819       0.00000000               0
  -40.4175797       0.00000000               0
  -40.3175812       0.00000000               0
  -40.2175789       0.00000000               0
  -40.1175804       0.00000000               0
  -40.0175819       0.00000000               0
  -39.9175797       0.00000000               0
  -39.8175812       0.00000000               0
  -39.7175789       0.00000000               0
  -39.6175804       0.00000000               0
  -39.5175819       0.00000000               0
  -39.4175797       0.00000000               0
  -39.3175812       0.00000000               0
  -39.2175789       0.00000000               0
  -39.1175804       0.00000000               0
  -39.0175819       0.00000000               0
  -38.9175797       0.00000000               0
  -38.8175812       0.00000000               0
  -38.7175789       0.00000000               0
  -38.6175804       0.00000000               0
  -38.5175819       0.00000000               0
  -38.4175797       0.00000000               0
  -38.3175812       0.00000000               0
  -38.2175789       0.00000000               0
  -38.1175804       0.00000000               0
  -38.0175819       0.00000000               0
  -37.9175797       0.00000000               0
  -37.8175812       0.00000000               0
  -37.7175789       0.00000000               0
  -37.6175804       0.00000000               0
  -37.5175819       0.00000000               0
  -37.4175797       0.00000000               0
  -37.3175812       0.00000000               0
  -37.2175789       0.00000000               0
  -37.1175804       0.00000000               0
  -37.0175819       0.00000000               0
  -36.9175797       0.00000000               0
  -36.8175812       0.00000000               0
  -36.7175789       0.00000000               0
  -36.6175804       0.00000000               0
  -36.5175819       0.00000000               0
  -36.4175797       0.00000000               0
  -36.3175812       0.00000000               0
  -36.2175789       0.00000000               0
  -36.1175804       0.00000000               0
  -36.0175819       0.00000000               0
  -35.9175797       0.00000000               0
  -35.8175812       0.00000000               0
  -35.7175789       0.00000000               0
  -35.6175804       0.00000000               0
  -35.5175819       0.00000000               0
  -35.4175797       0.00000000               0
  -35.3175812       0.00000000               0
  -35.2175789       0.00000000               0
  -35.1175804       0.00000000               0
  -35.0175819       0.00000000               0
  -34.9175797       0.00000000               0
  -34.8175812       1.19770004E-03           1
  -34.7175789       0.00000000               0
  -34.6175804       1.48076005E-03           2
  -34.5175819       0.00000000               0
  -34.4175797       5.67850017E-04           1
  -34.3175812       4.09450004E-04           2
  -34.2175789       0.00000000               0
  -34.1175804       2.80459994E-04           1
  -34.0175819       1.83550001E-04           3
  -33.9175797       0.00000000               0
  -33.8175812       1.79640003E-04           2
  -33.7175789       7.61699994E-05           2
  -33.6175804       1.10999999E-05           1
  -33.5175819       5.56699997E-05           2
  -33.4175797       2.75999992E-05           2
  -33.3175812       0.00000000               0
  -33.2175789       1.60199997E-05           2
  -33.1175804       5.12999986E-06           1
  -33.0175819       0.00000000               0
  -32.9175797       2.40499994E-05           2
  -32.8175812       0.00000000               0
  -32.7175789       0.00000000               0
  -32.6175804       3.26999998E-06           1
  -32.5175819       0.00000000               0
  -32.4175797       0.00000000               0
  -32.3175812       0.00000000               0
  -32.2175789       0.00000000               0
  -32.1175804       0.00000000               0
  -32.0175819       0.00000000               0
  -31.9175797       0.00000000               0
  -31.8175812       0.00000000               0
  -31.7175789       0.00000000               0
  -31.6175804       0.00000000               0
  -31.5175819       0.00000000               0
  -31.4175797       0.00000000               0
  -31.3175812       0.00000000               0
  -31.2175789       0.00000000               0
  -31.1175804       0.00000000               0
  -31.0175819       0.00000000               0
  -30.9175797       0.00000000               0
  -30.8175812       0.00000000               0
  -30.7175789       0.00000000               0
  -30.6175804       0.00000000               0
  -30.5175819       0.00000000               0
  -30.4175797       0.00000000               0
  -30.3175774       0.00000000               0
  -30.2175789       0.00000000               0
  -30.1175804       0.00000000               0
  -30.0175819       0.00000000               0
  -29.9175797       0.00000000               0
  -29.8175774       0.00000000               0
  -29.7175789       0.00000000               0
  -29.6175804       0.00000000               0
  -29.5175819       0.00000000               0
  -29.4175797       0.00000000               0
  -29.3175774       0.00000000               0
  -29.2175789       0.00000000               0
  -29.1175804       0.00000000               0
  -29.0175819       0.00000000               0
  -28.9175797       0.00000000               0
  -28.8175774       0.00000000               0
  -28.7175789       0.00000000               0
  -28.6175804       0.00000000               0
  -28.5175819       0.00000000               0
  -28.4175797       0.00000000               0
  -28.3175774       0.00000000               0
  -28.2175789       0.00000000               0
  -28.1175804       0.00000000               0
  -28.0175819       0.00000000               0
  -27.9175797       0.00000000               0
  -27.8175774       0.00000000               0
  -27.7175808       0.00000000               0
  -27.6175804       0.00000000               0
  -27.5175800       0.00000000               0
  -27.4175797       0.00000000               0
  -27.3175793       0.00000000               0
  -27.2175808       0.00000000               0
  -27.1175804       0.00000000               0
  -27.0175800       0.00000000               0
  -26.9175797       0.00000000               0
  -26.8175793       0.00000000               0
  -26.7175808       0.00000000               0
  -26.6175804       0.00000000               0
  -26.5175800       0.00000000               0
  -26.4175797       0.00000000               0
  -26.3175793       0.00000000               0
  -26.2175808       0.00000000               0
  -26.1175804       0.00000000               0
  -26.0175800       0.00000000               0
  -25.9175797       0.00000000               0
  -25.8175793       0.00000000               0
  -25.7175808       0.00000000               0
  -25.6175804       0.00000000               0
  -25.5175800       0.00000000               0
  -25.4175797       0.00000000               0
  -25.3175793       0.00000000               0
  -25.2175808       0.00000000               0
  -25.1175804       0.00000000               0
  -25.0175800       0.00000000               0
  -24.9175797       0.00000000               0
  -24.8175793       0.00000000               0
  -24.7175808       0.00000000               0
  -24.6175804       0.00000000               0
  -24.5175800       0.00000000               0
  -24.4175797       0.00000000               0
  -24.3175793       0.00000000               0
  -24.2175808       0.00000000               0
  -24.1175804       0.00000000               0
  -24.0175800       0.00000000               0
  -23.9175797      0.220040426               1
  -23.8175793       0.00000000               0
  -23.7175808       0.00000000               0
  -23.6175804      0.237071693               1
  -23.5175800      0.684177637               3
  -23.4175797       0.00000000               0
  -23.3175793      0.875611544               4
  -23.2175808       1.04857934               5
  -23.1175804      0.872049868               4
  -23.0175800      0.613510609               3
  -22.9175797       1.22420573               6
  -22.8175793      0.409244895               2
  -22.7175808       1.21507883               6
  -22.6175804       1.01430440               5
  -22.5175800      0.808015704               4
  -22.4175797      0.569069028               3
  -22.3175793      0.754208446               4
  -22.2175808      0.742280364               4
  -22.1175804      0.386427104               2
  -22.0175800      0.539982140               3
  -21.9175797      0.596567452               3
  -21.8175793      0.578183711               3
  -21.7175808      0.354531974               2
  -21.6175804      0.586262524               3
  -21.5175800      0.190078869               1
  -21.4175797       0.00000000               0
  -21.3175793      0.195730776               1
  -21.2175808      0.194215938               1
  -21.1175804      0.575704694               3
  -21.0175800       0.00000000               0
  -20.9175797      0.360500693               2
  -20.8175793       0.00000000               0
  -20.7175808       0.00000000               0
  -20.6175804       0.00000000               0
  -20.5175800      0.175464436               1
  -20.4175797      0.178825483               1
  -20.3175793       0.00000000               0
  -20.2175808      0.169955671               1
  -20.1175804       0.00000000               0
  -20.0175800       0.00000000               0
  -19.9175797       0.00000000               0
  -19.8175793       0.00000000               0
  -19.7175808       0.00000000               0
  -19.6175804       0.00000000               0
  -19.5175800       0.00000000               0
  -19.4175797       0.00000000               0
  -19.3175793       0.00000000               0
  -19.2175808       0.00000000               0
  -19.1175804       0.00000000               0
  -19.0175800       0.00000000               0
  -18.9175797       0.00000000               0
  -18.8175793       0.00000000               0
  -18.7175808       0.00000000               0
  -18.6175804       0.00000000               0
  -18.5175800       0.00000000               0
  -18.4175797       0.00000000               0
  -18.3175793       0.00000000               0
  -18.2175808       0.00000000               0
  -18.1175804       0.00000000               0
  -18.0175800       0.00000000               0
  -17.9175797       0.00000000               0
  -17.8175793       0.00000000               0
  -17.7175808       0.00000000               0
  -17.6175804       0.00000000               0
  -17.5175800       0.00000000               0
  -17.4175797       0.00000000               0
  -17.3175793       0.00000000               0
  -17.2175808       0.00000000               0
  -17.1175804       0.00000000               0
  -17.0175800       0.00000000               0
  -16.9175797       0.00000000               0
  -16.8175793       0.00000000               0
  -16.7175808       0.00000000               0
  -16.6175804       0.00000000               0
  -16.5175800       0.00000000               0
  -16.4175797       0.00000000               0
  -16.3175793       0.00000000               0
  -16.2175808       0.00000000               0
  -16.1175804       0.00000000               0
  -16.0175800       0.00000000               0
  -15.9175797       0.00000000               0
  -15.8175793       0.00000000               0
  -15.7175808       0.00000000               0
  -15.6175804       0.00000000               0
  -15.5175800       0.00000000               0
  -15.4175797       0.00000000               0
  -15.3175793       0.00000000               0
  -15.2175808       0.00000000               0
  -15.1175804       0.00000000               0
  -15.0175800       0.00000000               0
  -14.9175797       0.00000000               0
  -14.8175793       0.00000000               0
  -14.7175808       0.00000000               0
  -14.6175804       0.00000000               0
  -14.5175781       0.00000000               0
  -14.4175797       0.00000000               0
  -14.3175812       0.00000000               0
  -14.2175789       0.00000000               0
  -14.1175804       0.00000000               0
  -14.0175781       0.00000000               0
  -13.9175797       0.00000000               0
  -13.8175812       0.00000000               0
  -13.7175789       0.00000000               0
  -13.6175804       0.00000000               0
  -13.5175781       0.00000000               0
  -13.4175797       0.00000000               0
  -13.3175812       0.00000000               0
  -13.2175789       0.00000000               0
  -13.1175804       0.00000000               0
  -13.0175781       3.41999985E-05           2
  -12.9175797       0.00000000               0
  -12.8175812       0.00000000               0
  -12.7175789       1.14819995E-04           2
  -12.6175804       0.00000000               0
  -12.5175781       0.00000000               0
  -12.4175797       4.33899986E-05           2
  -12.3175812       3.00299998E-05           1
  -12.2175789       9.35400021E-05           1
  -12.1175804       3.32099989E-05           2
  -12.0175781       3.20239982E-04           2
  -11.9175797      0.260927469               1
  -11.8175802       2.75190017E-04           3
  -11.7175779       4.61198995E-03           2
  -11.6175795      0.514540970               2
  -11.5175772      0.254300922               2
  -11.4175787      0.760232687               6
  -11.3175802      0.732733667               3
  -11.2175779      0.864777803               6
  -11.1175795      0.878545344               6
  -11.0175772      0.581036448               4
  -10.9175787      0.671946883               5
  -10.8175802       1.78082085              10
  -10.7175779      0.767679811               5
  -10.6175795      0.774942756               7
  -10.5175772      0.481567234               4
  -10.4175787       1.44229269               8
  -10.3175802      0.523234606               5
  -10.2175779       1.46289730               9
  -10.1175795      0.734225273               5
  -10.0175772      0.730621517               4
  -9.91757870      0.722574830               7
  -9.81758022      0.493259132               3
  -9.71757793      0.718469679               5
  -9.61757946      0.473049194               3
  -9.51757717      0.233651549               1
  -9.41757870      0.239998013               2
  -9.31758022      0.238087237               3
  -9.21757793      0.231207192               1
  -9.11757946      0.232644871               3
  -9.01757717      0.235597447               1
  -8.91757870      0.227403551               1
  -8.81758022      0.469227493               4
  -8.71757793      0.228005186               1
  -8.61757946      0.471407950               5
  -8.51757717      0.463540137               5
  -8.41757870      0.663764477               5
  -8.31758022      0.191096932               3
  -8.21757793       9.73461047E-02           3
  -8.11757946      0.198093206               2
  -8.01757717      0.184412420               2
  -7.91757870      0.191446021               2
  -7.81758022      0.176558197               2
  -7.71757793      0.354000390               4
  -7.61757946      0.223371625               3
  -7.51757717      0.170564502               2
  -7.41757870      0.328568459               4
  -7.31758022      0.177744091               3
  -7.21757793      0.245557249               6
  -7.11757946      0.234455913               3
  -7.01757717      0.313734174               4
  -6.91757870      0.308898836               4
  -6.81758022      0.296084702               4
  -6.71757793      0.304239571               4
  -6.61757946      0.301069796               4
  -6.51757717      0.302430779               5
  -6.41757870      0.212991685               5
  -6.31758022      0.209174708               4
  -6.21757793      0.184026733               4
  -6.11757946      0.130878270               4
  -6.01757717       7.20337629E-02           6
  -5.91757870      0.210877776               5
  -5.81758022      0.211110771               5
  -5.71757793      0.128396749               5
  -5.61757946       5.17036617E-02           4
  -5.51757717      0.113127381               6
  -5.41757870       8.24947953E-02           5
  -5.31758022      0.107890494              11
  -5.21757793       6.27972037E-02           9
  -5.11757946       6.40825182E-02          14
  -5.01757717       5.23554794E-02          13
  -4.91757870       9.31134075E-02          13
  -4.81758022       7.11704642E-02          10
  -4.71757793       3.54864597E-02           5
  -4.61757946       2.62428895E-02           8
  -4.51757717       3.55815403E-02           9
  -4.41757870       3.05013508E-02          12
  -4.31758022       7.58547988E-03           5
  -4.21757793       1.68656297E-02           9
  -4.11757946       3.40756513E-02          11
  -4.01757717       1.75176505E-02           6
  -3.91757870       9.80055984E-03           1
  -3.81758022       1.04301795E-02           7
  -3.71757793       1.80580784E-02           9
  -3.61757946       1.75222307E-02          11
  -3.51757717       8.97505134E-03           8
  -3.41757870       1.31943105E-02           9
  -3.31758022       1.02873202E-02           6
  -3.21757793       9.52965021E-03           8
  -3.11757946       8.14293977E-03          10
  -3.01757717       6.14767009E-03           5
  -2.91757870       1.20636690E-02           5
  -2.81758022       6.65525021E-03           4
  -2.71757793       4.35986044E-03           8
  -2.61757946       3.88995977E-03           9
  -2.51757717       4.03349986E-03           8
  -2.41757870       1.62562006E-03           6
  -2.31758022       1.13493502E-02           4
  -2.21757793       4.45532985E-03           4
  -2.11757946       5.31370053E-03           6
  -2.01757717       7.75420014E-03           5
  -1.91757870       6.40886975E-03           9
  -1.81758022       5.81761962E-03          11
  -1.71757793       7.16063986E-03          10
  -1.61757946       5.70252072E-03          10
  -1.51757717       6.85447967E-03          10
  -1.41757870       8.56713951E-03           9
  -1.31758022       6.18853047E-03           7
  -1.21757793       1.29963197E-02           5
  -1.11757946       9.70549975E-03           6
  -1.01757717       6.74053002E-03           7
 -0.917578697       2.70517985E-03           5
 -0.817580223       1.75433792E-02           9
 -0.717577934       1.59057900E-02           6
 -0.617579460       4.65417979E-03           7
 -0.517577171       6.13849983E-03           5
 -0.417578697       1.05254604E-02           5
 -0.317580223       7.16412999E-03           2
 -0.217577934       2.14723516E-02           8
 -0.117579460       6.00636005E-03           8
  -1.75771713E-02   1.54981995E-03           4
   8.24213028E-02   2.67309975E-03           6
  0.182419538       1.68714998E-03           7
  0.282421827       1.12077408E-02           8
  0.382420301       3.67837981E-03           4
  0.482422590       4.07648971E-03           7
  0.582421064       8.69362988E-03          16
  0.682419538       4.69637699E-02           4
  0.782421827       3.41471005E-03           2
  0.882420301       0.00000000               0
  0.982422590       3.15085016E-02           1
   1.08242106       8.33710015E-04           1
   1.18241954       1.87355001E-03           1
   1.28242183       1.43223200E-02           3
   1.38242030       2.37658601E-02           3
   1.48242259       1.18543496E-02           4
   1.58242106       0.00000000               0
   1.68241954       0.00000000               0
   1.78242183       1.49010005E-03           2
   1.88242030      0.109167807               1
   1.98242259       8.29578005E-03           2
   2.08242106       9.78811383E-02           1
   2.18241954       0.00000000               0
   2.28242183       9.81101692E-02           1
   2.38242030       3.35413008E-03           1
   2.48242259      0.273176581               3
   2.58242106       6.80101011E-03           1
   2.68241954      0.205192164               2
   2.78242183       0.00000000               0
   2.88242030       7.83103984E-03           1
   2.98242259       1.81575902E-02           3
   3.08242106       0.00000000               0
   3.18241954      0.178118080               5
   3.28242183      0.190589994               4
   3.38242030       4.90179881E-02           3
   3.48242259      0.233467609               3
   3.58242106      0.178576484               1
   3.68241954       0.00000000               0
   3.78242183      0.116906241               1
   3.88242030      0.339554310               3
   3.98242259      0.247976586               5
   4.08242130      0.172712624               4
   4.18241978      0.349694490               4
   4.28242207      0.170551509               1
   4.38242054      0.190211728               2
   4.48242283      0.161902308               2
   4.58242130      0.179934934               2
   4.68241978      0.142110005               1
   4.78242207      0.330493242               5
   4.88242054      0.277624071               5
   4.98242283      0.199174061               2
   5.08242130      0.139638677               3
   5.18241978      0.265597194               2
   5.28242207      0.449991107               5
   5.38242054      0.202037066               3
   5.48242283      0.423490465               5
   5.58242130       0.00000000               0
   5.68241978      0.307486832               3
   5.78242207      0.202179074               2
   5.88242054      0.129265293               2
   5.98242283      0.255172074               3
   6.08242130      0.419995815               4
   6.18241978      0.302744269               5
   6.28242207      0.310450792               3
   6.38242054      0.215466842               2
   6.48242283      0.372635603               3
   6.58242130      0.258373648               2
   6.68241978      0.516859412               4
   6.78242207      0.243937224               2
   6.88242054      0.332604259               3
   6.98242283      0.461802363               4
   7.08242130      0.502053380               4
   7.18241978      0.453889012               4
   7.28242207      0.319689929               4
   7.38242054      0.408799082               4
   7.48242283      0.455459297               4
   7.58242130      0.269539237               2
   7.68241978      0.554937899               4
   7.78242207      0.684289813               5
   7.88242054      0.414191127               3
   7.98242283      0.427266598               3
   8.08242130      0.878273010               7
   8.18241978      0.514666080               5
   8.28242207      0.506978035               4
   8.38242054      0.655098498               6
   8.48242283      0.899686396               6
   8.58242130      0.497935534               4
   8.68241978      0.852366269               6
   8.78242207      0.674144983               7
   8.88242054      0.643073916               5
   8.98242283      0.434134126               3
   9.08242130      0.562782168               4
   9.18241978      0.704314172               5
   9.28242207      0.814119816               5
   9.38242054      0.726113439               6
   9.48242283      0.666133881               5
   9.58242130      0.931189060               6
   9.68241978      0.454088151               4
   9.78242207      0.712356150               5
   9.88242054      0.701784074               5
   9.98242283      0.753174782               5
   10.0824213      0.495823294               4
   10.1824198      0.692181587               7
   10.2824221      0.556747377               4
   10.3824205      0.949301600               6
   10.4824228      0.478463680               4
   10.5824213      0.686287045               5
   10.6824198      0.557555676               4
   10.7824221      0.558802724               4
   10.8824205      0.654859483               4
   10.9824228      0.838541567               6
   11.0824213      0.657379448               5
   11.1824198      0.784253895               5
   11.2824221      0.620384157               5
   11.3824205      0.747634292               6
   11.4824228      0.517705798               6
   11.5824213      0.606678665               5
   11.6824198      0.365421265               3
   11.7824221      0.648869932               6
   11.8824205      0.660701454               5
   11.9824228      0.642309904               5
   12.0824213      0.468635261               4
   12.1824198      0.463334084               4
   12.2824221      0.514780164               4
   12.3824205      0.501906037               5
   12.4824228      0.393906325               6
   12.5824213      0.361710072               4
   12.6824198      0.466981858               5
   12.7824221      0.443701476               4
   12.8824205      0.318445355               5
   12.9824228      0.371411800               5
   13.0824213      0.490503848               6
   13.1824198      0.345566094               4
   13.2824221      0.360008866               4
   13.3824205      0.320705414               4
   13.4824228      0.248292357               3
   13.5824213      0.321430445               4
   13.6824198      0.360977888               4
   13.7824221      0.300197542               3
   13.8824205      0.511841297               5
   13.9824228      0.212941587               2
   14.0824213      0.199220091               2
   14.1824198      0.360985458               4
   14.2824221      0.179906502               2
   14.3824205      0.396563470               4
   14.4824228      0.291153371               3
   14.5824213      0.330180049               4
   14.6824198      0.353647232               4
   14.7824221      0.389655262               4
   14.8824205      0.300381333               4
   14.9824228      0.184304893               2
   15.0824213      0.337385535               4
   15.1824198      0.223374754               3
   15.2824221      0.266541481               4
   15.3824205      0.448014557               5
   15.4824228      0.335525781               4
   15.5824213      0.214369267               3
   15.6824198      0.277657956               4
   15.7824221      0.285455436               4
   15.8824205      0.231097713               4
   15.9824228      0.336282164               7
   16.0824203      0.292722821               5
   16.1824188      0.195333630               4
   16.2824211      0.245609269               5
   16.3824196      0.215911105               4
   16.4824219      0.243755579               5
   16.5824203      0.288556457               6
   16.6824188      0.219547212               5
   16.7824211      0.305378050               7
   16.8824196      0.275299132               5
   16.9824219      0.184124351               4
   17.0824203      0.246577084               4