-50.8329 0.96973304
-49.8131 0.97046055
-49.3306 0.96624265
-39.0235 0.00000000
-38.7847 0.00000000
-38.7558 0.00000000
-38.5366 0.00000000
-38.502 0.00000000
-38.438 0.00000000
-38.2615 0.00000000
-38.2316 0.00000000
-38.1445 0.00000000
-38.1353 0.00000000
-37.9723 0.00000000
-37.9425 0.00000000
-37.9013 0.00000000
-37.8483 0.00000000
-37.8255 0.00000000
-37.6656 0.00000000
-37.6388 0.00000000
-37.6143 0.00000000
-37.5768 0.00000000
-37.3581 0.00000000
-37.3519 0.00000000
-37.3292 0.00000000
-37.0752 0.00000000
-37.047 0.00000000
-36.7685 0.00000000
-28.1204 0.00000232
-27.8107 0.00000497
-27.7079 0.00000561
-27.6538 0.00000325
-27.6387 0.00023450
-27.5039 0.00003493
-27.4959 0.00130493
-27.48 0.00004574
-27.4404 0.00003117
-27.426 0.00002701
-27.4024 0.00070552
-27.3801 0.00016206
-27.3526 0.00000487
-27.3367 0.00000399
-27.3063 0.00001665
-27.283 0.00000297
-27.2567 0.00007699
-27.241 0.00222928
-27.2077 0.00013093
-27.1964 0.00104209
-27.1534 0.00587182
-27.1222 0.00137901
-27.1165 0.00058673
-27.1102 0.00255156
-27.1025 0.00008665
-27.0571 0.00001224
-27.0532 0.00008178
-26.9913 0.00000958
-26.9375 0.00005579
-26.9299 0.00011185
-26.9248 0.00020925
-26.9021 0.00013294
-26.875 0.00017049
-26.8689 0.00007546
-26.834 0.00032132
-26.8227 0.00001154
-26.7888 0.00018527
-26.7839 0.00001629
-26.7829 0.00007095
-26.7485 0.00003539
-26.7238 0.00017716
-26.7111 0.00007064
-26.6994 0.00203942
-26.6384 0.00010053
-26.6277 0.00007231
-26.5615 0.00011012
-26.5548 0.00039766
-26.5006 0.00000013
-26.4818 0.00000132
-26.4493 0.00000731
-26.438 0.00000580
-26.416 0.00260034
-26.4135 0.00193358
-26.3849 0.00075193
-26.3533 0.00059495
-26.2962 0.00931295
-26.254 0.00111890
-26.2189 0.00037275
-26.1757 0.00030851
-26.1648 0.00024522
-26.1043 0.00362758
-26.0952 0.00520002
-26.0812 0.00076715
-26.0305 0.00584230
-25.9982 0.00409953
-25.937 0.00000000
-25.9017 0.00218013
-25.8817 0.00001893
-25.825 0.00877359
-25.8038 0.00620749
-25.7983 0.00323666
-25.6955 0.00107376
-25.527 0.00158976
-25.4001 0.00514004
-25.3251 0.00347586
-25.2993 0.00104637
-25.2593 0.00181079
-25.0723 0.00159640
-25.047 0.00083408
-24.6835 0.00175010
-24.6116 0.00052186
-24.423 0.00041712
-17.1458 0.00000000
-17.136 0.00000000
-16.8952 0.00000000
-16.8606 0.00000000
-16.6037 0.00000000
-16.5962 0.00000000
-16.4452 0.00000000
-16.4266 0.00000000
-16.301 0.00000000
-16.2531 0.00000000
-16.2122 0.00000000
-16.2065 0.00000000
-16.0462 0.00000001
-16.0021 0.00000000
-15.9742 0.00000000
-15.9672 0.00000000
-15.9193 0.00000000
-15.8426 0.00000000
-15.829 0.00000001
-15.7744 0.00000011
-15.6832 0.00008047
-15.6492 0.00000000
-15.6246 0.00000742
-15.6214 0.00000001
-15.6117 0.00000000
-15.5812 0.00000000
-15.5628 0.00000129
-15.5564 0.00000006
-15.5145 0.00000108
-15.4795 0.00000073
-15.4634 0.00000235
-15.4292 0.00000171
-15.4121 0.00000088
-15.408 0.00000794
-15.384 0.00000484
-15.3744 0.00000000
-15.3683 0.00000010
-15.3321 0.00000131
-15.2911 0.00000000
-15.2887 0.00000009
-15.264 0.00003633
-15.2388 0.00001934
-15.2333 0.00000373
-15.2067 0.00003996
-15.1642 0.00001556
-15.1539 0.00000010
-15.1422 0.00000002
-15.1192 0.00000064
-15.1024 0.00000000
-15.0933 0.00000029
-15.0798 0.00000043
-15.0627 0.00000202
-15.0315 0.00001399
-15.0273 0.00000034
-15.001 0.00000041
-14.9977 0.00000191
-14.9835 0.00000765
-14.9742 0.00004108
-14.9658 0.00000378
-14.9587 0.00000932
-14.9495 0.00001575
-14.9335 0.00001557
-14.9123 0.00020501
-14.9028 0.00013118
-14.8875 0.00000941
-14.885 0.00000000
-14.8333 0.00050598
-14.8303 0.00000075
-14.8207 0.00001136
-14.7905 0.00022022
-14.7795 0.00003184
-14.7604 0.00000416
-14.7551 0.00007578
-14.7449 0.00002033
-14.7181 0.00005933
-14.7156 0.00000065
-14.6973 0.00011485
-14.6614 0.00000968
-14.6163 0.00010457
-14.6131 0.00000194
-14.6084 0.00003637
-14.5968 0.00000745
-14.5827 0.00000182
-14.5758 0.00000614
-14.5675 0.00005036
-14.5407 0.00000724
-14.5231 0.00000031
-14.5215 0.00000004
-14.4985 0.00003788
-14.4881 0.00011142
-14.4855 0.00002256
-14.4232 0.00000079
-14.4177 0.00001208
-14.4166 0.00000162
-14.3827 0.00001661
-14.3566 0.00000863
-14.3536 0.00005248
-14.3472 0.00000424
-14.3463 0.00001624
-14.3417 0.00000072
-14.326 0.00000248
-14.3152 0.00000045
-14.3041 0.00001921
-14.2971 0.00018624
-14.2382 0.00000001
-14.2284 0.00000908
-14.2182 0.00000034
-14.2062 0.00000505
-14.1736 0.00001433
-14.1315 0.00003702
-14.1303 0.00000812
-14.0983 0.00079406
-14.0972 0.00011213
-14.0768 0.00000030
-14.0733 0.00000050
-14.0663 0.00000001
-14.0224 0.00026419
-13.9501 0.00000445
-13.9362 0.00000071
-13.9298 0.00019906
-13.9259 0.00045636
-13.8646 0.00000001
-13.861 0.00000008
-13.8532 0.00015492
-13.8234 0.00145813
-13.8 0.00000000
-13.737 0.00045412
-13.66 0.00068411
-13.6278 0.00000000
-13.5469 0.00009963
-13.5194 0.00000000
-13.508 0.00178790
-13.4795 0.00000000
-13.4066 0.00056849
-13.3213 0.00014530
-13.2952 0.00000000
-13.2878 0.00000000
-13.1872 0.00038598
-13.0461 0.00008982
-12.9938 0.00072138
-12.9669 0.00000000
-12.947 0.00072803
-12.9381 0.00000000
-12.8945 0.00060357
-12.8215 0.00040798
-12.7892 0.00000000
-12.7531 0.00000000
-12.7448 0.00016144
-12.7421 0.00022119
-12.7024 0.00019934
-12.6892 0.00000000
-12.6709 0.00000000
-12.6562 0.00030915
-12.6444 0.00008353
-12.6225 0.00000116
-12.5988 0.00028432
-12.571 0.00045622
-12.5503 0.00000002
-12.5454 0.00000739
-12.5292 0.00000000
-12.5006 0.00000523
-12.4643 0.00000398
-12.4028 0.00002944
-12.3736 0.00000000
-12.3476 0.00000000
-12.3268 0.00000982
-12.3122 0.00000243
-12.2293 0.00003283
-12.1405 0.00005676
-12.1307 0.00000290
-12.0462 0.00005805
-12.0248 0.00736160
-12.0072 0.00008182
-11.9284 0.00050605
-11.9157 0.00164318
-11.8718 0.00053786
-11.8421 0.00003669
-11.8056 0.00184287
-11.7876 0.00011519
-11.7407 0.00087115
-11.7278 0.00003021
-11.6466 0.00090709
-11.6296 0.00092261
-11.6113 0.00005004
-11.5768 0.00000922
-11.5655 0.00005358
-11.5183 0.00158153
-11.5058 0.00090154
-11.477 0.00082537
-11.4226 0.00036378
-11.4116 0.00020496
-11.4072 0.00024120
-11.394 0.00107489
-11.363 0.00008858
-11.3449 0.00000322
-11.3018 0.00004983
-11.2583 0.00305534
-11.2442 0.00013690
-11.218 0.00178135
-11.1969 0.00028615
-11.1888 0.00005060
-11.1553 0.00115968
-11.1278 0.00278375
-11.0897 0.00001440
-11.0487 0.00052845
-11.0406 0.00133435
-11.0161 0.00008105
-11.0101 0.00072127
-10.9815 0.00068534
-10.95 0.00049476
-10.9172 0.01139848
-10.8653 0.00012684
-10.8417 0.00020024
-10.8367 0.00216447
-10.8137 0.00028956
-10.8044 0.00128283
-10.765 0.00072635
-10.7574 0.00107274
-10.7044 0.00234426
-10.6837 0.00124575
-10.6618 0.00034338
-10.6478 0.00084676
-10.6332 0.00069313
-10.6103 0.00055661
-10.605 0.00264743
-10.593 0.00354507
-10.5857 0.00145413
-10.5624 0.00104190
-10.5233 0.00065424
-10.5205 0.00069165
-10.5004 0.00446594
-10.4471 0.00006788
-10.404 0.00013141
-10.3767 0.00026184
-10.3606 0.00002683
-10.3357 0.00002364
-10.3197 0.00058885
-10.2559 0.00010700
-10.2404 0.00021668
-10.2341 0.00108050
-10.2086 0.00007015
-10.1811 0.00008888
-10.1682 0.00003911
-10.1656 0.00080455
-10.1537 0.00003805
-10.1401 0.00007613
-10.1261 0.00001684
-10.1222 0.00052432
-10.1073 0.00070006
-10.0989 0.00006541
-10.0391 0.00342198
-10.0065 0.00142157
-9.99635 0.00003664
-9.96144 0.00027379
-9.94422 0.00004296
-9.93709 0.00013667
-9.91009 0.00006780
-9.90884 0.00013950
-9.8831 0.00068635
-9.85891 0.00000051
-9.84397 0.00075065
-9.82541 0.00060304
-9.79961 0.00023739
-9.78059 0.00019128
-9.74291 0.00149673
-9.72691 0.00000044
-9.70541 0.00070237
-9.69763 0.00029812
-9.6831 0.00071646
-9.67148 0.00008154
-9.65964 0.00059157
-9.61542 0.00007384
-9.60802 0.00017777
-9.59784 0.00016511
-9.59137 0.00060259
-9.57327 0.00027835
-9.51784 0.00030111
-9.50891 0.00004971
-9.50268 0.00001526
-9.49779 0.00088702
-9.48804 0.00026502
-9.47248 0.00015981
-9.46905 0.00017106
-9.46766 0.00020897
-9.45117 0.00002197
-9.43871 0.00000071
-9.43762 0.00000386
-9.4174 0.00028356
-9.40908 0.00008290
-9.39008 0.00008717
-9.38633 0.00023740
-9.37972 0.00060326
-9.35781 0.00020770
-9.35041 0.00008559
-9.34459 0.00011880
-9.33814 0.00004692
-9.33114 0.00016591
-9.31928 0.00000466
-9.31152 0.00001539
-9.30679 0.00000317
-9.29944 0.00002512
-9.28246 0.00000191
-9.27909 0.00000942
-9.2771 0.00003279
-9.26652 0.00000996
-9.26208 0.00002178
-9.25841 0.00017288
-9.24818 0.00002722
-9.24295 0.00006666
-9.23735 0.00007614
-9.23092 0.00009537
-9.22466 0.00010882
-9.21087 0.00003878
-9.20524 0.00004594
-9.20469 0.00002567
-9.20262 0.00014058
-9.19631 0.00000852
-9.1916 0.00018010
-9.18088 0.00001084
-9.16986 0.00033971
-9.16613 0.00012193
-9.15484 0.00002147
-9.14553 0.00011447
-9.13128 0.00009044
-9.12333 0.00052305
-9.11704 0.00004146
-9.10398 0.00010465
-9.09691 0.00017803
-9.08934 0.00045462
-9.08553 0.00011506
-9.07982 0.00003815
-9.07201 0.00030520
-9.06659 0.00029979
-9.05633 0.00008466
-9.05005 0.00031488
-9.03712 0.00050508
-9.03149 0.00027458
-9.02776 0.00001384
-9.02257 0.00007438
-9.01378 0.00016232
-8.99729 0.00067391
-8.979 0.00011713
-8.96588 0.00007701
-8.95421 0.00000479
-8.93729 0.00026196
-8.93328 0.00012534
-8.92937 0.00001894
-8.90509 0.00003071
-8.88264 0.00009006
-8.876 0.00000989
-8.84849 0.00108239
-8.82237 0.00005438
-8.80765 0.00076127
-8.78286 0.00030903
-8.77853 0.00065414
-8.7726 0.00034310
-8.7634 0.00002826
-8.75682 0.00002049
-8.73589 0.00007437
-8.72846 0.00106112
-8.70827 0.00038762
-8.68256 0.00008562
-8.67938 0.00003436
-8.67377 0.00014677
-8.67083 0.00004086
-8.6625 0.00001366
-8.6542 0.00002127
-8.64163 0.00022038
-8.63039 0.00104559
-8.62503 0.00197876
-8.61439 0.00008926
-8.61154 0.00001529
-8.59951 0.00003013
-8.5871 0.00007202
-8.57905 0.00005371
-8.56909 0.00001302
-8.56239 0.00004626
-8.55831 0.00034737
-8.55034 0.00002831
-8.54394 0.00003792
-8.51886 0.00007228
-8.49556 0.00007437
-8.48753 0.00000721
-8.44405 0.00002641
-8.43904 0.00001741
-8.42911 0.00026495
-8.42462 0.00046542
-8.42204 0.00009772
-8.42079 0.00003407
-8.38557 0.00026420
-8.38035 0.00002420
-8.37382 0.00000539
-8.34745 0.00016026
-8.33624 0.00068409
-8.32995 0.00019566
-8.32753 0.00019629
-8.31387 0.00000002
-8.30712 0.00006480
-8.3016 0.00005973
-8.28111 0.00004727
-8.27112 0.00002618
-8.26353 0.00013447
-8.25923 0.00042457
-8.24982 0.00269275
-8.24544 0.00289134
-8.2275 0.00007791
-8.20837 0.00082678
-8.20424 0.00040364
-8.20116 0.00030146
-8.17841 0.00022351
-8.14279 0.00393506
-8.06325 0.00067833
-8.01993 0.00005216
-8.01686 0.00020274
-8.00189 0.00053634
-7.99131 0.00022748
-7.97289 0.00015715
-7.95781 0.00011006
-7.93852 0.00004014
-7.92393 0.00013816
-7.91631 0.00006563
-7.90461 0.00103678
-7.89139 0.00008480
-7.88423 0.00015900
-7.87114 0.00007598
-7.86597 0.00026278
-7.86077 0.00005115
-7.8448 0.00006202
-7.82564 0.00003287
-7.82279 0.00027061
-7.8134 0.00016642
-7.79876 0.00025357
-7.78238 0.00058274
-7.77871 0.00031735
-7.77188 0.00025160
-7.76347 0.00023027
-7.75805 0.00005079
-7.75068 0.00020814
-7.74151 0.00003537
-7.71715 0.00020062
-7.69985 0.00003518
-7.68287 0.00007917
-7.6817 0.00005728
-7.66749 0.00004253
-7.66036 0.00001808
-7.64572 0.00000377
-7.64352 0.00005094
-7.6257 0.00001739
-7.62183 0.00005087
-7.58969 0.00009967
-7.58178 0.00003982
-7.57734 0.00002770
-7.5667 0.00010381
-7.55971 0.00008630
-7.55756 0.00023536
-7.53636 0.00010656
-7.52583 0.00006972
-7.51149 0.00018690
-7.4886 0.00051068
-7.46988 0.00008002
-7.46284 0.00042207
-7.45369 0.00026555
-7.4326 0.00004416
-7.4169 0.00009931
-7.41225 0.00003331
-7.40278 0.00002846
-7.383 0.00002519
-7.36882 0.00015218
-7.34923 0.00006741
-7.34817 0.00010146
-7.32876 0.00002901
-7.32264 0.00003915
-7.30751 0.00002297
-7.29091 0.00009890
-7.27644 0.00007795
-7.26626 0.00004521
-7.25671 0.00004667
-7.25565 0.00004205
-7.24321 0.00005398
-7.23614 0.00002013
-7.22591 0.00009082
-7.2185 0.00002419
-7.19434 0.00012760
-7.18463 0.00011433
-7.16775 0.00001222
-7.1305 0.00006423
-7.12035 0.00003812
-7.11709 0.00006373
-7.08528 0.00001942
-7.07183 0.00020775
-7.02824 0.00018194
-6.99281 0.00004230
-6.96775 0.00007001
-6.94321 0.00001274
-6.90367 0.00001334
-6.88497 0.00007660
-6.88067 0.00001113
-6.87197 0.00000412
-6.85678 0.00000811
-6.84644 0.00003575
-6.84356 0.00003523
-6.83842 0.00001344
-6.82884 0.00001309
-6.81167 0.00002712
-6.80255 0.00011128
-6.79978 0.00002472
-6.78748 0.00001449
-6.77142 0.00009489
-6.75417 0.00013181
-6.74674 0.00006699
-6.7355 0.00002814
-6.72519 0.00003286
-6.71504 0.00001057
-6.69972 0.00001320
-6.68756 0.00006855
-6.67531 0.00001507
-6.66837 0.00003041
-6.65346 0.00003401
-6.64043 0.00004267
-6.621 0.00002405
-6.6192 0.00007081
-6.60625 0.00001278
-6.57626 0.00000805
-6.56391 0.00003204
-6.54595 0.00002327
-6.50595 0.00001916
-6.48548 0.00004114
-6.45664 0.00022731
-6.43931 0.00009496
-6.42959 0.00019836
-6.42341 0.00001576
-6.39133 0.00124907
-6.35509 0.00003770
-6.32499 0.00013305
-6.29432 0.00010213
-6.28738 0.00004250
-6.26689 0.00016628
-6.2605 0.00020775
-6.25005 0.00017676
-6.21536 0.00004675
-6.20863 0.00002524
-6.17944 0.00006249
-6.14801 0.00079758
-6.13342 0.00006609
-6.11925 0.00024880
-6.10466 0.00038095
-6.07516 0.00000897
-6.07312 0.00015652
-6.06896 0.00000959
-6.05775 0.00002062
-6.04972 0.00001527
-6.0455 0.00009695
-6.0359 0.00001232
-6.02629 0.00014527
-6.01083 0.00005098
-6.00719 0.00022570
-5.99766 0.00005475
-5.99119 0.00005484
-5.9759 0.00002666
-5.97364 0.00000551
-5.96556 0.00010631
-5.96 0.00021641
-5.94466 0.00005026
-5.94082 0.00020654
-5.92022 0.00011060
-5.90874 0.00008901
-5.90539 0.00020442
-5.8867 0.00002962
-5.87905 0.00005852
-5.87247 0.00026853
-5.86414 0.00006702
-5.85701 0.00010980
-5.85184 0.00003072
-5.83676 0.00027347
-5.82923 0.00004149
-5.82109 0.00010407
-5.81129 0.00003334
-5.79423 0.00020459
-5.78289 0.00032536
-5.77818 0.00002507
-5.75146 0.00003713
-5.74639 0.00018813
-5.7419 0.00004158
-5.73673 0.00000703
-5.71864 0.00003170
-5.70892 0.00002653
-5.69809 0.00031977
-5.69048 0.00001212
-5.68272 0.00011194
-5.67671 0.00019622
-5.66171 0.00046815
-5.65543 0.00002399
-5.64269 0.00002772
-5.64016 0.00003643
-5.62822 0.00042598
-5.61796 0.00026588
-5.60773 0.00043782
-5.60313 0.00010990
-5.58092 0.00015296
-5.57469 0.00016852
-5.56372 0.00071427
-5.54849 0.00058175
-5.53613 0.00008933
-5.51317 0.00012426
-5.51093 0.00004223
-5.4905 0.00024645
-5.47512 0.00038766
-5.46095 0.00009392
-5.44214 0.00065539
-5.43425 0.00021518
-5.42465 0.00007485
-5.40546 0.00116896
-5.38465 0.00019553
-5.38231 0.00043153
-5.35523 0.00492236
-5.33188 0.00300317
-5.29547 0.00024672
-5.28274 0.00005439
-5.27795 0.00023507
-5.25711 0.00010575
-5.23558 0.00015192
-5.22369 0.00013470
-5.21106 0.00009607
-5.19955 0.00082202
-5.18644 0.00018278
-5.17193 0.00016766
-5.15515 0.00011826
-5.14236 0.00010439
-5.1251 0.00004505
-5.11142 0.00001010
-5.08312 0.00006264
-5.05702 0.00024000
-5.05041 0.00016520
-5.0312 0.00024503
-5.02976 0.00097250
-5.01242 0.00016403
-4.99626 0.00035349
-4.98788 0.00011856
-4.98374 0.00057587
-4.97169 0.00007860
-4.95479 0.00041380
-4.94671 0.00052884
-4.9192 0.00030347
-4.90646 0.00014894
-4.88831 0.00036574
-4.87122 0.00038285
-4.85696 0.00029207
-4.85492 0.00019573
-4.82591 0.00007828
-4.81721 0.00014903
-4.80015 0.00004962
-4.79206 0.00006887
-4.77068 0.00009951
-4.74469 0.00005436
-4.73789 0.00002350
-4.73087 0.00006063
-4.72537 0.00015653
-4.68711 0.00003421
-4.66861 0.00008287
-4.64591 0.00005809
-4.61984 0.00016581
-4.60319 0.00004876
-4.55375 0.00041051
-4.54768 0.00044541
-4.54052 0.00019277
-4.47535 0.00090260
-4.45097 0.00005027
-4.43165 0.00060718
-4.41671 0.00136267
-4.39102 0.00025340
-4.38675 0.00031172
-4.37401 0.00049607
-4.36231 0.00018243
-4.35178 0.00014228
-4.33842 0.00035042
-4.32248 0.00009153
-4.31676 0.00017829
-4.29948 0.00010689
-4.2889 0.00001741
-4.28503 0.00000731
-4.26854 0.00006166
-4.24737 0.00010136
-4.24403 0.00010158
-4.22166 0.00006292
-4.19709 0.00000977
-4.14952 0.00021146
-4.14683 0.00003319
-4.13015 0.00008609
-4.11763 0.00020300
-4.09959 0.00006961
-4.08454 0.00007155
-4.06593 0.00002479
-4.04179 0.00005536
-4.0062 0.00003727
-3.99768 0.00003000
-3.98086 0.00001192
-3.96778 0.00009203
-3.96595 0.00004289
-3.94016 0.00000347
-3.9367 0.00003954
-3.92546 0.00002764
-3.92024 0.00003139
-3.90995 0.00003453
-3.89507 0.00005173
-3.88111 0.00018105
-3.86856 0.00014426
-3.85153 0.00023600
-3.84467 0.00004168
-3.83267 0.00013218
-3.81841 0.00016183
-3.78296 0.00004268
-3.78217 0.00001582
-3.69648 0.00000801
-3.68034 0.00002715
-3.67544 0.00010128
-3.66333 0.00116127
-3.65925 0.00003246
-3.65313 0.00003215
-3.64796 0.00011035
-3.62973 0.00017964
-3.62608 0.00048809
-3.61898 0.00019742
-3.60864 0.00060569
-3.60472 0.00046004
-3.60303 0.00009510
-3.5959 0.00041478
-3.59169 0.00038098
-3.58415 0.00001472
-3.58116 0.00063389
-3.57865 0.00002680
-3.57495 0.00029670
-3.57019 0.00001763
-3.56445 0.00006954
-3.54728 0.00011059
-3.54135 0.00002597
-3.52788 0.00015478
-3.52031 0.00271471
-3.51247 0.00000570
-3.46145 0.02877905
-3.41109 0.00080239
-3.40442 0.00144216
-3.17805 0.01661301
-3.06452 0.00032290
-2.99402 0.00028990
-2.91769 0.00003624
-2.91233 0.00131642
-2.85975 0.00284938
-2.82849 0.00240603
-2.79984 0.00005708
-2.7846 0.00346443
-2.70174 0.00067156
-2.6883 0.00042639
-2.67458 0.00017993
-2.65058 0.00104988
-2.42309 0.00000018
-2.41085 0.00075504
-2.27629 0.08287254
-2.2002 0.00069030
-2.18072 0.00177681
-2.03598 0.04091841
-1.90975 0.02697749
-1.7993 0.00048383
-1.68523 0.00694397
-1.66692 0.00057291
-1.66096 0.00013871
-1.57981 0.00039198
-1.51905 0.00010127
-1.44414 0.01377165
-1.28887 0.00077889
-1.22261 0.00028124
-1.20136 0.00083507
-1.1924 0.00011901
-1.03131 0.00008896
-1.00103 0.00019462
-0.985189 0.00021761
-0.958032 0.00218981
-0.948263 0.00459406
-0.928426 0.01031203
-0.862819 0.00212588
-0.851853 0.00028478
-0.839635 0.00634081
-0.822056 0.00350194
-0.807852 0.01243545
-0.734599 0.00599228
-0.698625 0.01206287
-0.641345 0.00297025
-0.633454 0.00546358
-0.593644 0.00248018
-0.388633 0.04368265
-0.314319 0.01325505
-0.29606 0.00599378
-0.245338 0.01031792
-0.229827 0.00580237
-0.193772 0.00123270
-0.1815 0.01064652
-0.176548 0.00031198
-0.134642 0.00097140
-0.120274 0.00201219
-0.115376 0.00853939
-0.063974 0.00016599
-0.0479737 0.00006970
-0.0202181 0.00183132
-0.000108846 0.00215891
0.0231569 0.00725559
0.0278373 0.00841684
0.112655 0.00090234
0.180194 0.00162601
0.247896 0.01659203
0.311054 0.00246801
0.321584 0.00515904
0.427981 0.00085571
0.458567 0.00048575
0.544772 0.00795135
0.585698 0.00043487
0.601835 0.00246265
0.613454 0.00083017
0.632366 0.00167529
0.642026 0.00031468
0.670026 0.00095241
0.699904 0.00318426
0.712585 0.00499506
0.72951 0.00019026
0.748368 0.00786877
0.780668 0.00514785
0.851962 0.00688522
0.879989 0.00650878
0.889051 0.00046658
0.893976 0.00513777
1.02598 0.00509630
1.04644 0.00202985
1.08598 0.00045395
1.10111 0.00511307
1.11341 0.00114377
1.14127 0.00049860
1.14949 0.00216504
1.18625 0.00612236
1.22155 0.00438617
1.25366 0.00671930
1.26729 0.00172939
1.27915 0.00928198
1.31017 0.00176527
1.34438 0.00323297
1.3603 0.00190079
1.49238 0.00219862
1.52297 0.00811249
1.54343 0.01133085
1.56983 0.00420126
1.61701 0.00696429
1.69897 0.01102632
1.75924 0.00142493
1.78161 0.00390973
1.80839 0.00108281
1.84477 0.00084647
1.8793 0.00232702
1.90602 0.00720823
1.94039 0.00300500
1.95571 0.00162057
1.97955 0.00050231
2.0094 0.00114701
2.03106 0.00393628
2.03359 0.00313584
2.06189 0.00214734
2.0866 0.00551443
2.11073 0.00218936
2.16127 0.00230804
2.19887 0.01014915
2.22742 0.01733258
2.30894 0.00361711
2.33966 0.00478502
2.3583 0.00093677
2.40941 0.00176916
2.4515 0.00034698
2.47177 0.00334635
2.50677 0.00345640
2.53327 0.00139178
2.55183 0.00142692
2.57915 0.00197762
2.66038 0.00161287
2.70596 0.00350918
2.72122 0.00361460
2.72704 0.00046063
2.77771 0.00090820
2.78588 0.00115391
2.80386 0.00429327
2.82223 0.00093102
2.86841 0.00185447
2.89037 0.00300228
2.92738 0.00153118
2.93535 0.00240902
2.97606 0.00106967
2.99845 0.00185912
3.02283 0.00305467
3.05677 0.00042558
3.10292 0.00238242
3.12496 0.00118817
3.14915 0.00414676
3.15511 0.00024205
3.19674 0.00201312
3.20841 0.00272598
3.23914 0.00020212
3.25421 0.00380784
3.2778 0.00510084
3.28817 0.00116180
3.31092 0.00644727
3.33122 0.00219750
3.38251 0.00124957
3.43272 0.00091196
3.47413 0.00751077
3.49416 0.00721183
3.54018 0.01156690
3.54962 0.00193097
3.58603 0.00033417
3.60722 0.00377536
3.62475 0.00222062
3.64094 0.00307234
3.65691 0.00656847
3.71376 0.00169257
3.71944 0.00314940
3.75762 0.00483496
3.79172 0.00126906
3.7977 0.00113904
3.81629 0.00080536
3.86941 0.00208182
3.87523 0.00429976
3.90206 0.00460788
3.91186 0.00695209
3.91675 0.00242747
3.94753 0.00705419
3.96304 0.00460757
3.98416 0.00140354
3.99156 0.00363983
4.01676 0.00025612
4.03665 0.00142489
4.04315 0.00122600
4.07736 0.00334918
4.09689 0.00536184
4.09997 0.00096386
4.11126 0.00515718
4.1705 0.00045609
4.17632 0.00063730
4.188 0.00761174
4.21809 0.00455004
4.2246 0.00491330
4.23159 0.00303459
4.27347 0.00212506
4.27897 0.00446118
4.30936 0.00310420
4.31567 0.00207854
4.3443 0.00489666
4.35048 0.00289300
4.36727 0.00110571
4.40065 0.00177224
4.42885 0.00329424
4.43954 0.00355053
4.48468 0.00100676
4.49192 0.00127140
4.51072 0.00295924
4.52626 0.00800700
4.54558 0.00286824
4.56074 0.01396808
4.58428 0.00670422
4.59239 0.00453188
4.59573 0.00308776
4.60452 0.01523955
4.62218 0.00132137
4.64956 0.00407515
4.66493 0.00072565
4.70575 0.00231424
4.72365 0.00288995
4.73046 0.00740737
4.73372 0.00720866
4.76243 0.02193467
4.78951 0.00337556
4.8184 0.00416794
4.84045 0.00458433
4.8873 0.01174698
4.92491 0.00445787
4.93873 0.00316366
4.9586 0.00427283
4.97054 0.02026879
5.00401 0.00362383
5.01218 0.00067929
5.02426 0.01224439
5.05299 0.00772506
5.09158 0.00793334
5.11003 0.01050934
5.12592 0.00446499
5.13621 0.00485650
5.15153 0.00089057
5.17969 0.00256340
5.20843 0.00500516
5.21727 0.00100432
5.23664 0.00169447
5.25305 0.00623846
5.25833 0.00286400
5.27569 0.00151091
5.28856 0.00085691
5.30873 0.00367620
5.31599 0.00317238
5.35265 0.00138219
5.37033 0.00077837
5.39455 0.00069361
5.40149 0.00177961
5.44171 0.00721940
5.44582 0.00655528
5.45518 0.00449370
5.48903 0.00245294
5.50462 0.00076971
5.52772 0.00179480
5.54998 0.00342674
5.57396 0.00436636
5.57668 0.00101734
5.60362 0.00826114
5.63268 0.00036906
5.65853 0.00269987
5.69252 0.00455323
5.72283 0.00378011
5.73067 0.00168950
5.7489 0.01038949
5.76011 0.00451962
5.78819 0.00321037
5.79984 0.00283269
5.80302 0.00438303
5.83475 0.00829166
5.84659 0.00125199
5.86931 0.00505062
5.92272 0.00335853
5.93434 0.00533095
5.95301 0.00259958
5.96896 0.00162236
5.97701 0.00137311
5.98841 0.00064065
6.00153 0.00814430
6.03116 0.00338557
6.04387 0.00140477
6.05816 0.00492558
6.06714 0.00405310
6.10153 0.00109957
6.13486 0.00343907
6.15108 0.00239125
6.1704 0.01051819
6.18355 0.00112699
6.20414 0.00032675
6.22801 0.00192462
6.24513 0.00624554
6.26012 0.00568567
6.28349 0.00374253
6.31049 0.00377047
6.32246 0.00334075
6.36483 0.00196077
6.3771 0.00490277
6.39367 0.00340278
6.40227 0.00245758
6.42393 0.00927714
6.45558 0.00097615
6.46733 0.00134148
6.5001 0.00626113
6.53982 0.00222606
6.55514 0.00080616
6.58108 0.00103715
6.60513 0.00387643
6.61697 0.00206121
6.65721 0.00460777
6.67384 0.00782880
6.70962 0.00336995
6.72965 0.00027966
6.76214 0.00734417
6.77558 0.00083551
6.79183 0.00267656
6.80192 0.00031504
6.83553 0.00656072
6.84954 0.00145301
6.86361 0.00718172
6.87673 0.00179382
6.87891 0.00832162
6.89409 0.00175748
6.91956 0.00082490
6.94391 0.00177135
6.98993 0.00270016
6.99502 0.00039236
7.00166 0.00508933
7.03099 0.00024821
7.06403 0.00056870
7.06819 0.00319461
7.07771 0.00155755
7.11409 0.00169094
7.13891 0.00664466
7.14854 0.00183977
7.17486 0.00651252
7.18158 0.00022776
7.20825 0.00103356
7.22947 0.00071283
7.25263 0.00179217
7.26125 0.00222530
7.27138 0.00383213
7.29608 0.00264463
7.31086 0.00109131
7.32003 0.00149081
7.3516 0.00036162
7.36327 0.00262174
7.38555 0.00619848
7.41198 0.00224089
7.43881 0.00111281
7.44335 0.00303579
7.46518 0.00182626
7.49503 0.00532685
7.52534 0.00308627
7.54126 0.00062188
7.56852 0.00188637
7.57174 0.00209368
7.58398 0.00139579
7.61903 0.00303281
7.62306 0.00184026
7.65255 0.00446917
7.68913 0.00155420
7.7002 0.00688065
7.70385 0.00124615
7.73762 0.00558333
7.75511 0.00058080
7.77664 0.00412496
7.80077 0.00248324
7.80684 0.00154122
7.83716 0.00566858
7.86268 0.00498790
7.88009 0.00052172
7.90875 0.00073030
7.94461 0.00076648
7.96353 0.00050021
7.98265 0.00264911
8.0146 0.00188242
8.02549 0.00156321
8.05934 0.00109286
8.07746 0.00049472
8.09134 0.00084502
8.11512 0.00078673
8.16513 0.00189518
8.1995 0.00164532
8.20334 0.00126612
8.21139 0.00135881
8.24005 0.00075750
8.26067 0.00315536
8.27763 0.00099929
8.28484 0.00199343
8.31061 0.00218075
8.33833 0.00141784
8.35412 0.00029885
8.36514 0.00040868
8.3764 0.00110288
8.39564 0.00336753
8.40223 0.00067280
8.46228 0.00292716
8.49102 0.00541289
8.49681 0.00021669
8.5333 0.00875766
8.55366 0.00327164
8.55883 0.00274765
8.58767 0.00054432
8.612 0.00157964
8.62071 0.00085583
8.63148 0.00142615
8.6877 0.00904863
8.70724 0.00037687
8.72757 0.00045866
8.73197 0.00365320
8.74093 0.00602397
8.78022 0.00561623
8.80485 0.00218802
8.81946 0.00190648
8.85794 0.00147207
8.86651 0.00353294
8.87358 0.00115491
8.90284 0.00020155
8.91127 0.00277852
8.93135 0.00196442
8.93897 0.00507208
8.96681 0.00105815
9.00931 0.00251566
9.01628 0.00227977
9.04814 0.00170857
9.06303 0.00222376
9.08044 0.00433948
9.13016 0.00031327
9.14562 0.00172122
9.16434 0.00085742
9.19334 0.00733028
9.21011 0.00621632
9.23111 0.00224193
9.25705 0.00184541
9.28861 0.00398463
9.34469 0.00310275
9.35324 0.00135806
9.37626 0.00424998
9.40573 0.00205628
9.43019 0.00311660
9.43321 0.00378986
9.46927 0.00260772
9.513 0.00701772
9.52734 0.00096325
9.56075 0.00566926
9.58211 0.00124426
9.60753 0.01400583
9.65809 0.00498188
9.67058 0.00442684
9.68661 0.00254660
9.73817 0.00385459
9.7481 0.00062142
9.76223 0.00062370
9.81855 0.00198483
9.85692 0.00500176
9.90781 0.00583738
9.94642 0.01027766
10.0038 0.00635297
10.0064 0.00082332
10.041 0.00271985
10.0669 0.00229052
10.1341 0.00340698
10.154 0.00632999
10.1829 0.00430490
10.1936 0.00779557
10.2471 0.00889663
10.2533 0.00221397
10.2962 0.00523135
10.3281 0.00453764
10.3544 0.00328398
10.3801 0.00362691
10.3938 0.00110806
10.4242 0.00206157
10.4449 0.00685050
10.4948 0.00327916
10.499 0.00123587
10.5148 0.00461777
10.5516 0.00397056
10.5744 0.00015661
10.6144 0.00603838
10.6175 0.00188955
10.6421 0.00517043
10.6841 0.00186553
10.7167 0.00326554
10.7413 0.00181474
10.7533 0.00351960
10.8125 0.00055814
10.8668 0.00431440
10.8827 0.00074065
10.9055 0.00137523
10.9316 0.00457366
10.9581 0.00215207
10.9921 0.00189124
11.0004 0.00032573
11.0556 0.00184876
11.0675 0.00084317
11.0974 0.00054947
11.1091 0.00080290
11.1304 0.00066020
11.169 0.00606702
11.2023 0.01114090
11.2262 0.00228548
11.2392 0.00263589
11.2653 0.00117739
11.2972 0.00194077
11.3216 0.00207128
11.3302 0.00189270
11.3479 0.00098085
11.4117 0.00108575
11.434 0.00151034
11.4534 0.00070946
11.4733 0.00514664
11.4986 0.00155987
11.5047 0.00162418
11.5436 0.00078617
11.5765 0.00078435
11.617 0.00077283
11.6454 0.00127988
11.6669 0.00117007
11.6934 0.00166181
11.6966 0.00274489
11.7234 0.00064636
11.7346 0.00150853
11.768 0.00240172
11.7888 0.00275984
11.7999 0.00264150
11.813 0.00120135
11.8228 0.00047719
11.8394 0.00079458
11.8647 0.00113958
11.8938 0.00411169
11.9062 0.00075806
11.9407 0.00158889
11.9493 0.00077140
11.9581 0.00057773
11.9861 0.00119800
12.0312 0.00087505
12.043 0.00045988
12.059 0.00280362
12.0831 0.00123022
12.1007 0.00224809
12.1231 0.00254283
12.1415 0.00014318
12.1647 0.00108749
12.1757 0.00118577
12.1987 0.00042224
12.2369 0.00158515
12.2437 0.00202922
12.2931 0.00288237
12.305 0.00129647
12.3149 0.00202161
12.3191 0.00104809
12.3386 0.00075016
12.3788 0.00068819
12.4045 0.00099849
12.4147 0.00108663
12.4221 0.00076342
12.4491 0.00335352
12.4655 0.00018884
12.4811 0.00073405
12.5011 0.00073635
12.52 0.00027588
12.5376 0.00082851
12.563 0.00045204
12.5814 0.00115324
12.5923 0.00078061
12.6123 0.00056046
12.6223 0.00015630
12.6303 0.00064848
12.6483 0.00152438
12.6605 0.00134609
12.6864 0.00345579
12.6984 0.00116667
12.7411 0.00255891
12.7572 0.00020854
12.7661 0.00130828
12.8055 0.00110017
12.8172 0.00013649
12.8241 0.00262863
12.8501 0.00248635
12.885 0.00436154
12.9193 0.00131887
12.9307 0.00091598
12.9552 0.00087243
12.9821 0.00070066
13.0085 0.00031316
13.0465 0.00103626
13.0644 0.00213192
13.1155 0.00211021
13.1257 0.00101524
13.1316 0.00111080
13.1816 0.00730662
13.2165 0.00302525
13.2203 0.00121678
13.2594 0.00148291
13.317 0.00270085
13.3437 0.00281219
13.3845 0.00125082
13.4118 0.00437874
13.4345 0.00294028
13.4775 0.00453724
13.4933 0.00080678
13.5195 0.00374006
13.5503 0.00123444
13.5696 0.00025087
13.6012 0.00046793
13.6086 0.00084949
13.6151 0.00016572
13.6217 0.00094508
13.6371 0.00017092
13.6592 0.00028830
13.6999 0.00060888
13.7097 0.00021041
13.7246 0.00076220
13.7425 0.00100094
13.7764 0.00057850
13.8109 0.00143757
13.8149 0.00089297
13.8565 0.00937859
13.8738 0.00840632
13.8905 0.00011693
13.918 0.00301255
13.9695 0.00109372
14.0065 0.00141282
14.0584 0.00312377
14.1078 0.00192749
14.1366 0.00101290
14.1547 0.00039549
14.1699 0.00294934
14.2207 0.00244783
14.239 0.00106307
14.2513 0.00189876
14.3232 0.00418737
14.3263 0.00186980
14.3913 0.00374730
14.4023 0.00222862
14.4501 0.00076496
14.4773 0.00118065
14.5483 0.00344508
14.5844 0.00114268
14.623 0.00172035
14.6297 0.00394074
14.6605 0.00067743
14.6786 0.00798664
14.7323 0.00222793
14.7521 0.00112132
14.7977 0.00162911
14.8549 0.00249932
14.8653 0.00117029
14.8934 0.00103038
14.9413 0.00063809
14.9626 0.00284693
14.9867 0.00093022
15.0041 0.00025895
15.0275 0.00229724
15.0673 0.00038143
15.0788 0.00109488
15.0865 0.00187114
15.1043 0.00390303
15.1325 0.00059423
15.1404 0.00061225
15.184 0.00196943
15.22 0.00090771
15.2295 0.00133332
15.2484 0.00027103
15.2739 0.00079160
15.2885 0.00049968
15.3197 0.00080068
15.338 0.00114518
15.3712 0.00061922
15.4057 0.00066460
15.4182 0.00061493