  -46.6175804      0.969733059               1
  -46.5175819       0.00000000               0
  -46.4175797       0.00000000               0
  -46.3175812       0.00000000               0
  -46.2175789       0.00000000               0
  -46.1175804       0.00000000               0
  -46.0175819       0.00000000               0
  -45.9175797       0.00000000               0
  -45.8175812       0.00000000               0
  -45.7175789       0.00000000               0
  -45.6175804      0.970460534               1
  -45.5175819       0.00000000               0
  -45.4175797       0.00000000               0
  -45.3175812       0.00000000               0
  -45.2175789       0.00000000               0
  -45.1175804      0.966242671               1
  -45.0175819       0.00000000               0
  -44.9175797       0.00000000               0
  -44.8175812       0.00000000               0
  -44.7175789       0.00000000               0
  -44.6175804       0.00000000               0
  -44.5175819       0.00000000               0
  -44.4175797       0.00000000               0
  -44.3175812       0.00000000               0
  -44.2175789       0.00000000               0
  -44.1175804       0.00000000               0
  -44.0175819       0.00000000               0
  -43.9175797       0.00000000               0
  -43.8175812       0.00000000               0
  -43.7175789       0.00000000               0
  -43.6175804       0.00000000               0
  -43.5175819       0.00000000               0
  -43.4175797       0.00000000               0
  -43.3175812       0.00000000               0
  -43.2175789       0.00000000               0
  -43.1175804       0.00000000               0
  -43.0175819       0.00000000               0
  -42.9175797       0.00000000               0
  -42.8175812       0.00000000               0
  -42.7175789       0.00000000               0
  -42.6175804       0.00000000               0
  -42.5175819       0.00000000               0
  -42.4175797       0.00000000               0
  -42.3175812       0.00000000               0
  -42.2175789       0.00000000               0
  -42.1175804       0.00000000               0
  -42.0175819       0.00000000               0
  -41.9175797       0.00000000               0
  -41.8175812       0.00000000               0
  -41.7175789       0.00000000               0
  -41.6175804       0.00000000               0
  -41.5175819       0.00000000               0
  -41.4175797       0.00000000               0
  -41.3175812       0.00000000               0
  -41.2175789       0.00000000               0
  -41.1175804       0.00000000               0
  -41.0175819       0.00000000               0
  -40.9175797       0.00000000               0
  -40.8175812       0.00000000               0
  -40.7175789       0.00000000               0
  -40.6175804       0.00000000               0
  -40.5175819       0.00000000               0
  -40.4175797       0.00000000               0
  -40.3175812       0.00000000               0
  -40.2175789       0.00000000               0
  -40.1175804       0.00000000               0
  -40.0175819       0.00000000               0
  -39.9175797       0.00000000               0
  -39.8175812       0.00000000               0
  -39.7175789       0.00000000               0
  -39.6175804       0.00000000               0
  -39.5175819       0.00000000               0
  -39.4175797       0.00000000               0
  -39.3175812       0.00000000               0
  -39.2175789       0.00000000               0
  -39.1175804       0.00000000               0
  -39.0175819       0.00000000               0
  -38.9175797       0.00000000               0
  -38.8175812       0.00000000               0
  -38.7175789       0.00000000               0
  -38.6175804       0.00000000               0
  -38.5175819       0.00000000               0
  -38.4175797       0.00000000               0
  -38.3175812       0.00000000               0
  -38.2175789       0.00000000               0
  -38.1175804       0.00000000               0
  -38.0175819       0.00000000               0
  -37.9175797       0.00000000               0
  -37.8175812       0.00000000               0
  -37.7175789       0.00000000               0
  -37.6175804       0.00000000               0
  -37.5175819       0.00000000               0
  -37.4175797       0.00000000               0
  -37.3175812       0.00000000               0
  -37.2175789       0.00000000               0
  -37.1175804       0.00000000               0
  -37.0175819       0.00000000               0
  -36.9175797       0.00000000               0
  -36.8175812       0.00000000               0
  -36.7175789       0.00000000               0
  -36.6175804       0.00000000               0
  -36.5175819       0.00000000               0
  -36.4175797       0.00000000               0
  -36.3175812       0.00000000               0
  -36.2175789       0.00000000               0
  -36.1175804       0.00000000               0
  -36.0175819       0.00000000               0
  -35.9175797       0.00000000               0
  -35.8175812       0.00000000               0
  -35.7175789       0.00000000               0
  -35.6175804       0.00000000               0
  -35.5175819       0.00000000               0
  -35.4175797       0.00000000               0
  -35.3175812       0.00000000               0
  -35.2175789       0.00000000               0
  -35.1175804       0.00000000               0
  -35.0175819       0.00000000               0
  -34.9175797       0.00000000               0
  -34.8175812       0.00000000               1
  -34.7175789       0.00000000               0
  -34.6175804       0.00000000               2
  -34.5175819       0.00000000               0
  -34.4175797       0.00000000               1
  -34.3175812       0.00000000               2
  -34.2175789       0.00000000               0
  -34.1175804       0.00000000               1
  -34.0175819       0.00000000               3
  -33.9175797       0.00000000               0
  -33.8175812       0.00000000               2
  -33.7175789       0.00000000               2
  -33.6175804       0.00000000               1
  -33.5175819       0.00000000               2
  -33.4175797       0.00000000               2
  -33.3175812       0.00000000               0
  -33.2175789       0.00000000               2
  -33.1175804       0.00000000               1
  -33.0175819       0.00000000               0
  -32.9175797       0.00000000               2
  -32.8175812       0.00000000               0
  -32.7175789       0.00000000               0
  -32.6175804       0.00000000               1
  -32.5175819       0.00000000               0
  -32.4175797       0.00000000               0
  -32.3175812       0.00000000               0
  -32.2175789       0.00000000               0
  -32.1175804       0.00000000               0
  -32.0175819       0.00000000               0
  -31.9175797       0.00000000               0
  -31.8175812       0.00000000               0
  -31.7175789       0.00000000               0
  -31.6175804       0.00000000               0
  -31.5175819       0.00000000               0
  -31.4175797       0.00000000               0
  -31.3175812       0.00000000               0
  -31.2175789       0.00000000               0
  -31.1175804       0.00000000               0
  -31.0175819       0.00000000               0
  -30.9175797       0.00000000               0
  -30.8175812       0.00000000               0
  -30.7175789       0.00000000               0
  -30.6175804       0.00000000               0
  -30.5175819       0.00000000               0
  -30.4175797       0.00000000               0
  -30.3175774       0.00000000               0
  -30.2175789       0.00000000               0
  -30.1175804       0.00000000               0
  -30.0175819       0.00000000               0
  -29.9175797       0.00000000               0
  -29.8175774       0.00000000               0
  -29.7175789       0.00000000               0
  -29.6175804       0.00000000               0
  -29.5175819       0.00000000               0
  -29.4175797       0.00000000               0
  -29.3175774       0.00000000               0
  -29.2175789       0.00000000               0
  -29.1175804       0.00000000               0
  -29.0175819       0.00000000               0
  -28.9175797       0.00000000               0
  -28.8175774       0.00000000               0
  -28.7175789       0.00000000               0
  -28.6175804       0.00000000               0
  -28.5175819       0.00000000               0
  -28.4175797       0.00000000               0
  -28.3175774       0.00000000               0
  -28.2175789       0.00000000               0
  -28.1175804       0.00000000               0
  -28.0175819       0.00000000               0
  -27.9175797       0.00000000               0
  -27.8175774       0.00000000               0
  -27.7175808       0.00000000               0
  -27.6175804       0.00000000               0
  -27.5175800       0.00000000               0
  -27.4175797       0.00000000               0
  -27.3175793       0.00000000               0
  -27.2175808       0.00000000               0
  -27.1175804       0.00000000               0
  -27.0175800       0.00000000               0
  -26.9175797       0.00000000               0
  -26.8175793       0.00000000               0
  -26.7175808       0.00000000               0
  -26.6175804       0.00000000               0
  -26.5175800       0.00000000               0
  -26.4175797       0.00000000               0
  -26.3175793       0.00000000               0
  -26.2175808       0.00000000               0
  -26.1175804       0.00000000               0
  -26.0175800       0.00000000               0
  -25.9175797       0.00000000               0
  -25.8175793       0.00000000               0
  -25.7175808       0.00000000               0
  -25.6175804       0.00000000               0
  -25.5175800       0.00000000               0
  -25.4175797       0.00000000               0
  -25.3175793       0.00000000               0
  -25.2175808       0.00000000               0
  -25.1175804       0.00000000               0
  -25.0175800       0.00000000               0
  -24.9175797       0.00000000               0
  -24.8175793       0.00000000               0
  -24.7175808       0.00000000               0
  -24.6175804       0.00000000               0
  -24.5175800       0.00000000               0
  -24.4175797       0.00000000               0
  -24.3175793       0.00000000               0
  -24.2175808       0.00000000               0
  -24.1175804       0.00000000               0
  -24.0175800       0.00000000               0
  -23.9175797       2.32000002E-06           1
  -23.8175793       0.00000000               0
  -23.7175808       0.00000000               0
  -23.6175804       4.97000019E-06           1
  -23.5175800       2.43360002E-04           3
  -23.4175797       0.00000000               0
  -23.3175793       1.41676993E-03           4
  -23.2175808       9.03449953E-04           5
  -23.1175804       2.32589012E-03           4
  -23.0175800       7.04483967E-03           3
  -22.9175797       4.69796965E-03           6
  -22.8175793       6.53699972E-05           2
  -22.7175808       1.02130999E-03           6
  -22.6175804       3.19440005E-04           5
  -22.5175800       2.38774996E-03           4
  -22.4175797       5.80089982E-04           3
  -22.3175793       1.45600006E-05           4
  -22.2175808       5.88079961E-03           4
  -22.1175804       1.04318503E-02           2
  -22.0175800       9.26480046E-04           3
  -21.9175797       9.59474966E-03           3
  -21.8175793       9.94183030E-03           3
  -21.7175808       2.19906005E-03           2
  -21.6175804       1.82177406E-02           3
  -21.5175800       1.07375998E-03           1
  -21.4175797       0.00000000               0
  -21.3175793       1.58975995E-03           1
  -21.2175808       5.14004007E-03           1
  -21.1175804       6.33302005E-03           3
  -21.0175800       0.00000000               0
  -20.9175797       2.43047997E-03           2
  -20.8175793       0.00000000               0
  -20.7175808       0.00000000               0
  -20.6175804       0.00000000               0
  -20.5175800       1.75010005E-03           1
  -20.4175797       5.21860027E-04           1
  -20.3175793       0.00000000               0
  -20.2175808       4.17119998E-04           1
  -20.1175804       0.00000000               0
  -20.0175800       0.00000000               0
  -19.9175797       0.00000000               0
  -19.8175793       0.00000000               0
  -19.7175808       0.00000000               0
  -19.6175804       0.00000000               0
  -19.5175800       0.00000000               0
  -19.4175797       0.00000000               0
  -19.3175793       0.00000000               0
  -19.2175808       0.00000000               0
  -19.1175804       0.00000000               0
  -19.0175800       0.00000000               0
  -18.9175797       0.00000000               0
  -18.8175793       0.00000000               0
  -18.7175808       0.00000000               0
  -18.6175804       0.00000000               0
  -18.5175800       0.00000000               0
  -18.4175797       0.00000000               0
  -18.3175793       0.00000000               0
  -18.2175808       0.00000000               0
  -18.1175804       0.00000000               0
  -18.0175800       0.00000000               0
  -17.9175797       0.00000000               0
  -17.8175793       0.00000000               0
  -17.7175808       0.00000000               0
  -17.6175804       0.00000000               0
  -17.5175800       0.00000000               0
  -17.4175797       0.00000000               0
  -17.3175793       0.00000000               0
  -17.2175808       0.00000000               0
  -17.1175804       0.00000000               0
  -17.0175800       0.00000000               0
  -16.9175797       0.00000000               0
  -16.8175793       0.00000000               0
  -16.7175808       0.00000000               0
  -16.6175804       0.00000000               0
  -16.5175800       0.00000000               0
  -16.4175797       0.00000000               0
  -16.3175793       0.00000000               0
  -16.2175808       0.00000000               0
  -16.1175804       0.00000000               0
  -16.0175800       0.00000000               0
  -15.9175797       0.00000000               0
  -15.8175793       0.00000000               0
  -15.7175808       0.00000000               0
  -15.6175804       0.00000000               0
  -15.5175800       0.00000000               0
  -15.4175797       0.00000000               0
  -15.3175793       0.00000000               0
  -15.2175808       0.00000000               0
  -15.1175804       0.00000000               0
  -15.0175800       0.00000000               0
  -14.9175797       0.00000000               0
  -14.8175793       0.00000000               0
  -14.7175808       0.00000000               0
  -14.6175804       0.00000000               0
  -14.5175781       0.00000000               0
  -14.4175797       0.00000000               0
  -14.3175812       0.00000000               0
  -14.2175789       0.00000000               0
  -14.1175804       0.00000000               0
  -14.0175781       0.00000000               0
  -13.9175797       0.00000000               0
  -13.8175812       0.00000000               0
  -13.7175789       0.00000000               0
  -13.6175804       0.00000000               0
  -13.5175781       0.00000000               0
  -13.4175797       0.00000000               0
  -13.3175812       0.00000000               0
  -13.2175789       0.00000000               0
  -13.1175804       0.00000000               0
  -13.0175781       0.00000000               2
  -12.9175797       0.00000000               0
  -12.8175812       0.00000000               0
  -12.7175789       0.00000000               2
  -12.6175804       0.00000000               0
  -12.5175781       0.00000000               0
  -12.4175797       0.00000000               2
  -12.3175812       0.00000000               1
  -12.2175789       0.00000000               1
  -12.1175804       0.00000000               2
  -12.0175781       0.00000000               2
  -11.9175797       9.99999994E-09           1
  -11.8175802       0.00000000               3
  -11.7175779       0.00000000               2
  -11.6175795       1.19999996E-07           2
  -11.5175772       8.04700030E-05           2
  -11.4175787       8.78000083E-06           6
  -11.3175802       4.15999966E-06           3
  -11.2175779       1.54700010E-05           6
  -11.1175795       6.08000009E-05           6
  -11.0175772       5.56400009E-05           4
  -10.9175787       3.37999995E-06           5
  -10.8175802       1.09799992E-04          10
  -10.7175779       8.51579942E-04           5
  -10.6175795       3.64440028E-04           7
  -10.5175772       1.84510005E-04           4
  -10.4175787       2.15890002E-04           8
  -10.3175802       1.72209999E-04           5
  -10.2175779       1.13410002E-04           9
  -10.1175795       2.08389989E-04           5
  -10.0175772       2.88000010E-05           4
  -9.91757870       9.52140021E-04           7
  -9.81758022       2.69349985E-04           3
  -9.71757793       8.10429978E-04           5
  -9.61757946       1.91224995E-03           3
  -9.51757717       6.84109982E-04           1
  -9.41757870       9.96300005E-05           2
  -9.31758022       1.78789999E-03           3
  -9.21757793       5.68490010E-04           1
  -9.11757946       1.45300000E-04           3
  -9.01757717       3.85980005E-04           1
  -8.91757870       8.98200014E-05           1
  -8.81758022       1.44940999E-03           4
  -8.71757793       6.03570021E-04           1
  -8.61757946       7.90609978E-04           5
  -8.51757717       5.92019991E-04           5
  -8.41757870       7.49110011E-04           5
  -8.31758022       9.20999992E-06           3
  -8.21757793       2.94399997E-05           3
  -8.11757946       1.22499996E-05           2
  -8.01757717       8.95900012E-05           2
  -7.91757870       6.09499984E-05           2
  -7.81758022       7.44342012E-03           2
  -7.71757793       2.72377999E-03           4
  -7.61757946       2.82921013E-03           3
  -7.51757717       9.37300036E-04           2
  -7.41757870       1.03545003E-03           4
  -7.31758022       3.30843986E-03           3
  -7.21757793       1.97663018E-03           6
  -7.11757946       3.24206986E-03           3
  -7.01757717       3.27778002E-03           4
  -6.91757870       4.66095004E-03           4
  -6.81758022       1.98241998E-03           4
  -6.71757793       1.38900299E-02           4
  -6.61757946       3.37148015E-03           4
  -6.51757717       5.47327986E-03           5
  -6.41757870       9.24514048E-03           5
  -6.31758022       5.87970996E-03           4
  -6.21757793       4.43719997E-04           4
  -6.11757946       1.99302984E-03           4
  -6.01757717       1.11687009E-03           6
  -5.91757870       4.72860970E-03           5
  -5.81758022       1.91162992E-03           5
  -5.71757793       1.64480996E-03           5
  -5.61757946       2.52843997E-03           4
  -5.51757717       2.39049993E-03           6
  -5.41757870       1.29765994E-03           5
  -5.31758022       2.08449992E-03          11
  -5.21757793       1.75329996E-03           9
  -5.11757946       6.33010000E-04          14
  -5.01757717       1.25220011E-03          13
  -4.91757870       3.05506983E-03          13
  -4.81758022       1.78526004E-03          10
  -4.71757793       1.23198994E-03           5
  -4.61757946       2.24504014E-03           8
  -4.51757717       2.01166002E-03           9
  -4.41757870       3.75764002E-03          12
  -4.31758022       1.97679998E-04           5
  -4.21757793       2.00029998E-03           9
  -4.11757946       6.73308037E-03          11
  -4.01757717       5.76836010E-03           6
  -3.91757870       6.78330020E-04           1
  -3.81758022       1.32606993E-03           7
  -3.71757793       1.93629996E-03           9
  -3.61757946       2.39972980E-03          11
  -3.51757717       4.87569981E-04           8
  -3.41757870       7.67480058E-04           9
  -3.31758022       1.53493998E-03           6
  -3.21757793       5.51479985E-04           8
  -3.11757946       4.76020010E-04          10
  -3.01757717       3.69160000E-04           5
  -2.91757870       3.93249997E-04           5
  -2.81758022       3.06989998E-04           4
  -2.71757793       1.97720001E-04           8
  -2.61757946       5.12530038E-04           9
  -2.51757717       2.47339980E-04           8
  -2.41757870       1.70999992E-04           6
  -2.31758022       3.82569997E-04           4
  -2.21757793       1.50089012E-03           4
  -2.11757946       8.28470045E-04           6
  -2.01757717       9.98149975E-04           5
  -1.91757870       9.49989946E-04           9
  -1.81758022       1.14323001E-03          11
  -1.71757793       1.24171004E-03          10
  -1.61757946       1.00778998E-03          10
  -1.51757717       1.25457009E-03          10
  -1.41757870       2.94640986E-03           9
  -1.31758022       1.76509004E-03           7
  -1.21757793       6.79323031E-03           5
  -1.11757946       3.79701983E-03           6
  -1.01757717       1.62587990E-03           7
 -0.917578697       5.22990013E-04           5
 -0.817580223       3.45071964E-03           9
 -0.717577934       1.68880005E-03           6
 -0.617579460       5.23169991E-04           7
 -0.517577171       3.92330025E-04           5
 -0.417578697       1.26326003E-03           5
 -0.317580223       9.52870003E-04           2
 -0.217577934       3.70617025E-03           8
 -0.117579460       6.66030042E-04           8
  -1.75771713E-02   3.17340018E-04           4
   8.24213028E-02   5.10399987E-04           6
  0.182419538       2.57120002E-04           7
  0.282421827       7.48279970E-04           8
  0.382420301       3.52509989E-04           4
  0.482422590       1.47266989E-03           7
  0.582421064       4.01757983E-03          16
  0.682419538       3.16542387E-02           4
  0.782421827       2.24455004E-03           2
  0.882420301       0.00000000               0
  0.982422590       1.66130103E-02           1
   1.08242106       3.22900014E-04           1
   1.18241954       2.89899996E-04           1
   1.28242183       4.20203991E-03           3
   1.38242030       5.92754036E-03           3
   1.48242259       2.32776022E-03           4
   1.58242106       0.00000000               0
   1.68241954       0.00000000               0
   1.78242183       7.55219953E-04           2
   1.88242030       8.28725398E-02           1
   1.98242259       2.46711005E-03           2
   2.08242106       4.09184098E-02           1
   2.18241954       0.00000000               0
   2.28242183       2.69774906E-02           1
   2.38242030       4.83829994E-04           1
   2.48242259       7.65558984E-03           3
   2.58242106       3.91979993E-04           1
   2.68241954       1.38729205E-02           2
   2.78242183       0.00000000               0
   2.88242030       7.78889982E-04           1
   2.98242259       1.23532000E-03           3
   3.08242106       0.00000000               0
   3.18241954       7.28506036E-03           5
   3.28242183       1.90634988E-02           4
   3.38242030       2.19296701E-02           3
   3.48242259       2.04967000E-02           3
   3.58242106       2.48018000E-03           1
   3.68241954       0.00000000               0
   3.78242183       4.36826497E-02           1
   3.88242030       2.95667499E-02           3
   3.98242259       1.89649705E-02           5
   4.08242130       1.07872691E-02           4
   4.18241978       1.96626596E-02           4
   4.28242207       9.02339991E-04           1
   4.38242054       1.82180405E-02           2
   4.48242283       7.62704993E-03           2
   4.58242130       1.34146004E-03           2
   4.68241978       7.95134995E-03           1
   4.78242207       5.71765983E-03           5
   4.88242054       1.71907581E-02           5
   4.98242283       1.20330695E-02           2
   5.08242130       1.21131297E-02           3
   5.18241978       7.12614972E-03           2
   5.28242207       9.37442947E-03           5
   5.38242054       1.72278304E-02           3
   5.48242283       1.79104004E-02           5
   5.58242130       0.00000000               0
   5.68241978       2.16419604E-02           3
   5.78242207       1.11655500E-02           2
   5.88242054       1.24512501E-02           2
   5.98242283       5.83900977E-03           3
   6.08242130       1.41608203E-02           4
   6.18241978       1.08687803E-02           5
   6.28242207       1.00118294E-02           3
   6.38242054       2.74817310E-02           2
   6.48242283       9.33889952E-03           3
   6.58242130       2.11613998E-03           2
   6.68241978       9.62144975E-03           4
   6.78242207       3.59048997E-03           2
   6.88242054       7.58440979E-03           3
   6.98242283       7.28639960E-03           4
   7.08242130       8.79694987E-03           4
   7.18241978       6.40903972E-03           4
   7.28242207       7.95940030E-03           4
   7.38242054       8.74906033E-03           4
   7.48242283       1.49074104E-02           4
   7.58242130       2.16153008E-03           2
   7.68241978       2.82204710E-02           4
   7.78242207       1.59709603E-02           5
   7.88242054       9.67693049E-03           3
   7.98242283       3.21345986E-03           3
   8.08242130       3.20307799E-02           7
   8.18241978       7.95038044E-03           5
   8.28242207       1.48320608E-02           4
   8.38242054       2.12030597E-02           6
   8.48242283       1.95586383E-02           6
   8.58242130       9.72272083E-03           4
   8.68241978       3.00807208E-02           6
   8.78242207       3.56855765E-02           7
   8.88242054       4.17548902E-02           5
   8.98242283       1.21278297E-02           3
   9.08242130       2.36413404E-02           4
   9.18241978       4.45413589E-02           5
   9.28242207       2.86547374E-02           5
   9.38242054       1.93698090E-02           6
   9.48242283       1.05985897E-02           5
   9.58242130       2.15199701E-02           6
   9.68241978       8.44419003E-03           4
   9.78242207       1.67137701E-02           5
   9.88242054       2.49319486E-02           5
   9.98242283       1.99697390E-02           5
   10.0824213       1.63396802E-02           4
   10.1824198       2.14963406E-02           7
   10.2824221       1.09829893E-02           4
   10.3824205       2.58277599E-02           6
   10.4824228       1.28145199E-02           4
   10.5824213       2.10164208E-02           5
   10.6824198       1.06348302E-02           4
   10.7824221       1.15825608E-02           4
   10.8824205       1.88225806E-02           4
   10.9824228       1.90225616E-02           6
   11.0824213       1.44691700E-02           5
   11.1824198       8.99875909E-03           5
   11.2824221       1.49275307E-02           5
   11.3824205       1.25041399E-02           6
   11.4824228       1.20422402E-02           6
   11.5824213       1.44142304E-02           5
   11.6824198       9.03500058E-03           3
   11.7824221       1.47180799E-02           6
   11.8824205       1.58451293E-02           5
   11.9824228       1.88058987E-02           5
   12.0824213       2.51871021E-03           4
   12.1824198       7.18760025E-03           4
   12.2824221       4.02165018E-03           4
   12.3824205       8.18311051E-03           5
   12.4824228       7.29884021E-03           6
   12.5824213       8.07037018E-03           4
   12.6824198       2.04065293E-02           5
   12.7824221       4.40593995E-03           4
   12.8824205       1.95613299E-02           5
   12.9824228       1.47157405E-02           5
   13.0824213       1.22296307E-02           6
   13.1824198       8.72776005E-03           4
   13.2824221       7.23138964E-03           4
   13.3824205       1.76339392E-02           4
   13.4824228       8.44543986E-03           3
   13.5824213       1.32127199E-02           4
   13.6824198       1.62579510E-02           4
   13.7824221       2.02319697E-02           3
   13.8824205       1.20731508E-02           5
   13.9824228       6.98659010E-03           2
   14.0824213       1.61150396E-02           2
   14.1824198       1.21866595E-02           4
   14.2824221       9.73697007E-03           2
   14.3824205       2.32110694E-02           4
   14.4824228       1.30529711E-02           3
   14.5824213       1.36470404E-02           4
   14.6824198       1.31033603E-02           4
   14.7824221       1.32549694E-02           4
   14.8824205       1.04654105E-02           4
   14.9824228       4.87254001E-03           2
   15.0824213       8.84160958E-03           4
   15.1824198       4.06573014E-03           3
   15.2824221       2.85574002E-03           4
   15.3824205       2.33066808E-02           5
   15.4824228       6.88559981E-03           4
   15.5824213       3.30555020E-03           3
   15.6824198       9.11686011E-03           4
   15.7824221       4.00712993E-03           4
   15.8824205       6.56159036E-03           4
   15.9824228       1.14157610E-02           7
   16.0824203       7.80776981E-03           5
   16.1824188       5.33655006E-03           4
   16.2824211       7.25181028E-03           5
   16.3824196       5.22238016E-03           4
   16.4824219       7.99870025E-03           5
   16.5824203       7.07909046E-03           6
   16.6824188       3.02683003E-03           5
   16.7824211       6.16955990E-03           7
   16.8824196       8.69818963E-03           5
   16.9824219       6.35163998E-03           4
   17.0824203       7.46882008E-03           4