-46.6175804 1.68692991E-02
-46.5175819 0.00000000
-46.4175797 0.00000000
-46.3175812 0.00000000
-46.2175789 0.00000000
-46.1175804 0.00000000
-46.0175819 0.00000000
-45.9175797 0.00000000
-45.8175812 0.00000000
-45.7175789 0.00000000
-45.6175804 1.51193002E-02
-45.5175819 0.00000000
-45.4175797 0.00000000
-45.3175812 0.00000000
-45.2175789 0.00000000
-45.1175804 1.64758991E-02
-45.0175819 0.00000000
-44.9175797 0.00000000
-44.8175812 0.00000000
-44.7175789 0.00000000
-44.6175804 0.00000000
-44.5175819 0.00000000
-44.4175797 0.00000000
-44.3175812 0.00000000
-44.2175789 0.00000000
-44.1175804 0.00000000
-44.0175819 0.00000000
-43.9175797 0.00000000
-43.8175812 0.00000000
-43.7175789 0.00000000
-43.6175804 0.00000000
-43.5175819 0.00000000
-43.4175797 0.00000000
-43.3175812 0.00000000
-43.2175789 0.00000000
-43.1175804 0.00000000
-43.0175819 0.00000000
-42.9175797 0.00000000
-42.8175812 0.00000000
-42.7175789 0.00000000
-42.6175804 0.00000000
-42.5175819 0.00000000
-42.4175797 0.00000000
-42.3175812 0.00000000
-42.2175789 0.00000000
-42.1175804 0.00000000
-42.0175819 0.00000000
-41.9175797 0.00000000
-41.8175812 0.00000000
-41.7175789 0.00000000
-41.6175804 0.00000000
-41.5175819 0.00000000
-41.4175797 0.00000000
-41.3175812 0.00000000
-41.2175789 0.00000000
-41.1175804 0.00000000
-41.0175819 0.00000000
-40.9175797 0.00000000
-40.8175812 0.00000000
-40.7175789 0.00000000
-40.6175804 0.00000000
-40.5175819 0.00000000
-40.4175797 0.00000000
-40.3175812 0.00000000
-40.2175789 0.00000000
-40.1175804 0.00000000
-40.0175819 0.00000000
-39.9175797 0.00000000
-39.8175812 0.00000000
-39.7175789 0.00000000
-39.6175804 0.00000000
-39.5175819 0.00000000
-39.4175797 0.00000000
-39.3175812 0.00000000
-39.2175789 0.00000000
-39.1175804 0.00000000
-39.0175819 0.00000000
-38.9175797 0.00000000
-38.8175812 0.00000000
-38.7175789 0.00000000
-38.6175804 0.00000000
-38.5175819 0.00000000
-38.4175797 0.00000000
-38.3175812 0.00000000
-38.2175789 0.00000000
-38.1175804 0.00000000
-38.0175819 0.00000000
-37.9175797 0.00000000
-37.8175812 0.00000000
-37.7175789 0.00000000
-37.6175804 0.00000000
-37.5175819 0.00000000
-37.4175797 0.00000000
-37.3175812 0.00000000
-37.2175789 0.00000000
-37.1175804 0.00000000
-37.0175819 0.00000000
-36.9175797 0.00000000
-36.8175812 0.00000000
-36.7175789 0.00000000
-36.6175804 0.00000000
-36.5175819 0.00000000
-36.4175797 0.00000000
-36.3175812 0.00000000
-36.2175789 0.00000000
-36.1175804 0.00000000
-36.0175819 0.00000000
-35.9175797 0.00000000
-35.8175812 0.00000000
-35.7175789 0.00000000
-35.6175804 0.00000000
-35.5175819 0.00000000
-35.4175797 0.00000000
-35.3175812 0.00000000
-35.2175789 0.00000000
-35.1175804 0.00000000
-35.0175819 0.00000000
-34.9175797 0.00000000
-34.8175812 2.30270001E-04
-34.7175789 0.00000000
-34.6175804 4.36219998E-04
-34.5175819 0.00000000
-34.4175797 1.66330006E-04
-34.3175812 7.33399938E-05
-34.2175789 0.00000000
-34.1175804 2.80500008E-05
-34.0175819 1.31240013E-04
-33.9175797 0.00000000
-33.8175812 3.12299999E-05
-33.7175789 2.21200007E-05
-33.6175804 1.04000001E-05
-33.5175819 2.46499985E-05
-33.4175797 3.38099999E-05
-33.3175812 0.00000000
-33.2175789 3.27700000E-05
-33.1175804 6.06000003E-06
-33.0175819 0.00000000
-32.9175797 2.09600003E-05
-32.8175812 0.00000000
-32.7175789 0.00000000
-32.6175804 5.14400017E-05
-32.5175819 0.00000000
-32.4175797 0.00000000
-32.3175812 0.00000000
-32.2175789 0.00000000
-32.1175804 0.00000000
-32.0175819 0.00000000
-31.9175797 0.00000000
-31.8175812 0.00000000
-31.7175789 0.00000000
-31.6175804 0.00000000
-31.5175819 0.00000000
-31.4175797 0.00000000
-31.3175812 0.00000000
-31.2175789 0.00000000
-31.1175804 0.00000000
-31.0175819 0.00000000
-30.9175797 0.00000000
-30.8175812 0.00000000
-30.7175789 0.00000000
-30.6175804 0.00000000
-30.5175819 0.00000000
-30.4175797 0.00000000
-30.3175774 0.00000000
-30.2175789 0.00000000
-30.1175804 0.00000000
-30.0175819 0.00000000
-29.9175797 0.00000000
-29.8175774 0.00000000
-29.7175789 0.00000000
-29.6175804 0.00000000
-29.5175819 0.00000000
-29.4175797 0.00000000
-29.3175774 0.00000000
-29.2175789 0.00000000
-29.1175804 0.00000000
-29.0175819 0.00000000
-28.9175797 0.00000000
-28.8175774 0.00000000
-28.7175789 0.00000000
-28.6175804 0.00000000
-28.5175819 0.00000000
-28.4175797 0.00000000
-28.3175774 0.00000000
-28.2175789 0.00000000
-28.1175804 0.00000000
-28.0175819 0.00000000
-27.9175797 0.00000000
-27.8175774 0.00000000
-27.7175808 0.00000000
-27.6175804 0.00000000
-27.5175800 0.00000000
-27.4175797 0.00000000
-27.3175793 0.00000000
-27.2175808 0.00000000
-27.1175804 0.00000000
-27.0175800 0.00000000
-26.9175797 0.00000000
-26.8175793 0.00000000
-26.7175808 0.00000000
-26.6175804 0.00000000
-26.5175800 0.00000000
-26.4175797 0.00000000
-26.3175793 0.00000000
-26.2175808 0.00000000
-26.1175804 0.00000000
-26.0175800 0.00000000
-25.9175797 0.00000000
-25.8175793 0.00000000
-25.7175808 0.00000000
-25.6175804 0.00000000
-25.5175800 0.00000000
-25.4175797 0.00000000
-25.3175793 0.00000000
-25.2175808 0.00000000
-25.1175804 0.00000000
-25.0175800 0.00000000
-24.9175797 0.00000000
-24.8175793 0.00000000
-24.7175808 0.00000000
-24.6175804 0.00000000
-24.5175800 0.00000000
-24.4175797 0.00000000
-24.3175793 0.00000000
-24.2175808 0.00000000
-24.1175804 0.00000000
-24.0175800 0.00000000
-23.9175797 0.604231000
-23.8175793 0.00000000
-23.7175808 0.00000000
-23.6175804 0.614394009
-23.5175800 1.83659601
-23.4175797 0.00000000
-23.3175793 2.44167113
-23.2175808 3.04528522
-23.1175804 2.42873216
-23.0175800 1.80941498
-22.9175797 3.60743594
-22.8175793 1.20775104
-22.7175808 3.62351108
-22.6175804 3.03041697
-22.5175800 2.42217016
-22.4175797 1.80195105
-22.3175793 2.39775705
-22.2175808 2.40257502
-22.1175804 1.20084202
-22.0175800 1.78888297
-21.9175797 1.80447304
-21.8175793 1.80677605
-21.7175808 1.19308305
-21.6175804 1.78543997
-21.5175800 0.599375010
-21.4175797 0.00000000
-21.3175793 0.596771002
-21.2175808 0.581942022
-21.1175804 1.77012110
-21.0175800 0.00000000
-20.9175797 1.18043995
-20.8175793 0.00000000
-20.7175808 0.00000000
-20.6175804 0.00000000
-20.5175800 0.586278021
-20.4175797 0.592360020
-20.3175793 0.00000000
-20.2175808 0.595283985
-20.1175804 0.00000000
-20.0175800 0.00000000
-19.9175797 0.00000000
-19.8175793 0.00000000
-19.7175808 0.00000000
-19.6175804 0.00000000
-19.5175800 0.00000000
-19.4175797 0.00000000
-19.3175793 0.00000000
-19.2175808 0.00000000
-19.1175804 0.00000000
-19.0175800 0.00000000
-18.9175797 0.00000000
-18.8175793 0.00000000
-18.7175808 0.00000000
-18.6175804 0.00000000
-18.5175800 0.00000000
-18.4175797 0.00000000
-18.3175793 0.00000000
-18.2175808 0.00000000
-18.1175804 0.00000000
-18.0175800 0.00000000
-17.9175797 0.00000000
-17.8175793 0.00000000
-17.7175808 0.00000000
-17.6175804 0.00000000
-17.5175800 0.00000000
-17.4175797 0.00000000
-17.3175793 0.00000000
-17.2175808 0.00000000
-17.1175804 0.00000000
-17.0175800 0.00000000
-16.9175797 0.00000000
-16.8175793 0.00000000
-16.7175808 0.00000000
-16.6175804 0.00000000
-16.5175800 0.00000000
-16.4175797 0.00000000
-16.3175793 0.00000000
-16.2175808 0.00000000
-16.1175804 0.00000000
-16.0175800 0.00000000
-15.9175797 0.00000000
-15.8175793 0.00000000
-15.7175808 0.00000000
-15.6175804 0.00000000
-15.5175800 0.00000000
-15.4175797 0.00000000
-15.3175793 0.00000000
-15.2175808 0.00000000
-15.1175804 0.00000000
-15.0175800 0.00000000
-14.9175797 0.00000000
-14.8175793 0.00000000
-14.7175808 0.00000000
-14.6175804 0.00000000
-14.5175781 0.00000000
-14.4175797 0.00000000
-14.3175812 0.00000000
-14.2175789 0.00000000
-14.1175804 0.00000000
-14.0175781 0.00000000
-13.9175797 0.00000000
-13.8175812 0.00000000
-13.7175789 0.00000000
-13.6175804 0.00000000
-13.5175781 0.00000000
-13.4175797 0.00000000
-13.3175812 0.00000000
-13.2175789 0.00000000
-13.1175804 0.00000000
-13.0175781 9.34800046E-05
-12.9175797 0.00000000
-12.8175812 0.00000000
-12.7175789 3.51149996E-04
-12.6175804 0.00000000
-12.5175781 0.00000000
-12.4175797 1.24459999E-04
-12.3175812 7.66300000E-05
-12.2175789 2.46100011E-04
-12.1175804 1.01049998E-04
-12.0175781 9.11519979E-04
-11.9175797 0.689388990
-11.8175802 8.54149985E-04
-11.7175779 1.11775706E-02
-11.6175795 1.36898994
-11.5175772 0.695977271
-11.4175787 2.13177919
-11.3175802 2.07102394
-11.2175779 2.36539578
-11.1175795 2.41683102
-11.0175772 1.59884572
-10.9175787 1.84740210
-10.8175802 4.89080667
-10.7175779 2.10736203
-10.6175795 2.16217184
-10.5175772 1.34096146
-10.4175787 4.03553772
-10.3175802 1.52009380
-10.2175779 4.18779182
-10.1175795 2.11408710
-10.0175772 2.09985471
-9.91757870 2.10198903
-9.81758022 1.40035069
-9.71757793 2.10709953
-9.61757946 1.39114547
-9.51757717 0.695634007
-9.41757870 0.690157413
-9.31758022 0.698457301
-9.21757793 0.694476008
-9.11757946 0.682526648
-9.01757717 0.679423988
-8.91757870 0.681219995
-8.81758022 1.37175250
-8.71757793 0.666077018
-8.61757946 1.88756514
-8.51757717 1.80318117
-8.41757870 2.95701408
-8.31758022 1.59801292
-8.21757793 0.796371996
-8.11757946 1.59962797
-8.01757717 1.61006594
-7.91757870 1.61626101
-7.81758022 1.62744999
-7.71757793 3.24838519
-7.61757946 1.65294325
-7.51757717 1.63831496
-7.41757870 3.28670502
-7.31758022 1.67629659
-7.21757793 2.49529028
-7.11757946 2.47169995
-7.01757717 3.29230690
-6.91757870 2.56709862
-6.81758022 3.35508490
-6.71757793 3.22961307
-6.61757946 3.30106497
-6.51757717 3.45795393
-6.41757870 2.51029396
-6.31758022 2.59675407
-6.21757793 2.63428283
-6.11757946 1.49347758
-6.01757717 0.945495546
-5.91757870 3.31458187
-5.81758022 3.31364012
-5.71757793 2.48773742
-5.61757946 0.554139018
-5.51757717 4.79782724
-5.41757870 2.47502565
-5.31758022 5.13756466
-5.21757793 4.49852037
-5.11757946 5.33690500
-5.01757717 3.60317898
-4.91757870 5.91288662
-4.81758022 5.64280939
-4.71757793 4.46749115
-4.61757946 2.72254992
-4.51757717 5.39874458
-4.41757870 3.65836549
-4.31758022 0.935805321
-4.21757793 2.41974497
-4.11757946 2.10791969
-4.01757717 1.65313721
-3.91757870 0.804767013
-3.81758022 1.12983453
-3.71757793 1.76670957
-3.61757946 1.57794416
-3.51757717 0.939484596
-3.41757870 1.26901364
-3.31758022 1.04617393
-3.21757793 0.795108557
-3.11757946 0.646740973
-3.01757717 0.556818008
-2.91757870 0.840698600
-2.81758022 0.862016439
-2.71757793 4.55241427E-02
-2.61757946 5.46293110E-02
-2.51757717 3.84302102E-02
-2.41757870 1.61251202E-02
-2.31758022 1.47423893E-02
-2.21757793 1.49699394E-02
-2.11757946 2.29373798E-02
-2.01757717 4.22783978E-02
-1.91757870 2.67413314E-02
-1.81758022 2.96682715E-02
-1.71757793 3.40186991E-02
-1.61757946 2.94036102E-02
-1.51757717 1.83310397E-02
-1.41757870 2.33774912E-02
-1.31758022 1.84083190E-02
-1.21757793 2.91129705E-02
-1.11757946 2.04962604E-02
-1.01757717 2.32556295E-02
-0.917578697 8.22439045E-03
-0.817580223 4.99100275E-02
-0.717577934 4.04817909E-02
-0.617579460 1.45752095E-02
-0.517577171 1.29508898E-02
-0.417578697 3.90886106E-02
-0.317580223 1.62081011E-02
-0.217577934 6.08462580E-02
-0.117579460 2.32349113E-02
-1.75771713E-02 3.31802992E-03
8.24213028E-02 8.10624007E-03
0.182419538 4.06904006E-03
0.282421827 3.21582705E-02
0.382420301 1.55622493E-02
0.482422590 4.95075993E-03
0.582421064 1.42520806E-02
0.682419538 3.73311676E-02
0.782421827 2.98792007E-03
0.882420301 0.00000000
0.982422590 2.45552994E-02
1.08242106 8.24320014E-04
1.18241954 5.29982010E-03
1.28242183 2.80971006E-02
1.38242030 5.00705019E-02
1.48242259 3.67739797E-02
1.58242106 0.00000000
1.68241954 0.00000000
1.78242183 1.06553000E-03
1.88242030 0.115489997
1.98242259 1.54943895E-02
2.08242106 0.108392000
2.18241954 0.00000000
2.28242183 0.122111000
2.38242030 6.36692997E-03
2.48242259 0.328357697
2.58242106 7.04069017E-03
2.68241954 0.321115255
2.78242183 0.00000000
2.88242030 1.50471004E-02
2.98242259 4.60004024E-02
3.08242106 0.00000000
3.18241954 0.319086730
3.28242183 0.371566415
3.38242030 9.55936015E-02
3.48242259 0.436294973
3.58242106 0.342761993
3.68241954 0.00000000
3.78242183 0.218245000
3.88242030 0.656340957
3.98242259 0.461627781
4.08242130 0.328082949
4.18241978 0.712084115
4.28242207 0.350196987
4.38242054 0.405475289
4.48242283 0.346960008
4.58242130 0.379078805
4.68241978 0.304277003
4.78242207 0.768031359
4.88242054 0.638186812
4.98242283 0.463290006
5.08242130 0.315853477
5.18241978 0.629562974
5.28242207 1.05461800
5.38242054 0.456032574
5.48242283 1.03230727
5.58242130 0.00000000
5.68241978 0.738259017
5.78242207 0.479761004
5.88242054 0.311229885
5.98242283 0.552356005
6.08242130 0.951874018
6.18241978 0.725731909
6.28242207 0.663432002
6.38242054 0.534722030
6.48242283 0.834046960
6.58242130 0.524618030
6.68241978 0.940382957
6.78242207 0.553394020
6.88242054 0.631353021
6.98242283 0.860470951
7.08242130 1.05995107
7.18241978 0.849861026
7.28242207 0.629483521
7.38242054 0.742547989
7.48242283 0.779533982
7.58242130 0.441774994
7.68241978 0.963433981
7.78242207 1.17315602
7.88242054 0.635640025
7.98242283 0.638358951
8.08242130 1.33949494
8.18241978 0.767812014
8.28242207 0.850549042
8.38242054 1.13506794
8.48242283 1.52924597
8.58242130 0.860207975
8.68241978 1.39502704
8.78242207 1.13131869
8.88242054 1.10855496
8.98242283 0.705788016
9.08242130 0.868142009
9.18241978 1.05032206
9.28242207 1.20891404
9.38242054 1.11768472
9.48242283 1.00705123
9.58242130 1.34755504
9.68241978 0.692295194
9.78242207 1.04956508
9.88242054 1.05466402
9.98242283 1.21878302
10.0824213 0.746999979
10.1824198 1.01227856
10.2824221 0.754413009
10.3824205 1.28312600
10.4824228 0.737566888
10.5824213 0.965761006
10.6824198 0.735351026
10.7824221 0.828924954
10.8824205 0.926312089
10.9824228 1.09887695
11.0824213 0.886527061
11.1824198 0.997521996
11.2824221 0.777208984
11.3824205 0.933027685
11.4824228 0.717370212
11.5824213 0.821856976
11.6824198 0.530505002
11.7824221 0.850241005
11.8824205 0.811471939
11.9824228 0.787097991
12.0824213 0.667301059
12.1824198 0.614221990
12.2824221 0.655906022
12.3824205 0.634677052
12.4824228 0.549258530
12.5824213 0.483304024
12.6824198 0.653005779
12.7824221 0.589959979
12.8824205 0.478538275
12.9824228 0.479890496
13.0824213 0.695766687
13.1824198 0.491193295
13.2824221 0.494545996
13.3824205 0.475547373
13.4824228 0.355446011
13.5824213 0.416473627
13.6824198 0.490026414
13.7824221 0.466664016
13.8824205 0.720685005
13.9824228 0.286266983
14.0824213 0.344148010
14.1824198 0.553855002
14.2824221 0.260776997
14.3824205 0.566565990
14.4824228 0.482746989
14.5824213 0.580413997
14.6824198 0.614512026
14.7824221 0.554004967
14.8824205 0.508402705
14.9824228 0.301651001
15.0824213 0.548532009
15.1824198 0.282423794
15.2824221 0.422313929
15.3824205 0.696756005
15.4824228 0.544656038
15.5824213 0.392425001
15.6824198 0.420572579
15.7824221 0.596647978
15.8824205 0.403203905
15.9824228 0.576045632
16.0824203 0.547978878
16.1824188 0.383440495
16.2824211 0.492924571
16.3824196 0.437064201
16.4824219 0.449835300
16.5824203 0.529361308
16.6824188 0.410001099
16.7824211 0.629183233
16.8824196 0.510765910
16.9824219 0.416575313
17.0824203 0.503301978
17.1824188 0.558698058
17.2824211 0.520018995
17.3824196 0.605751991
17.4824181 0.270043999
17.5824242 0.518514991
17.6824226 0.474418014
17.7824211 0.609764218
17.8824196 0.346414715
17.9824181 0.445055991
18.0824242 0.522818983
18.1824226 0.457173020
18.2824211 0.570253968
18.3824196 0.603863001
18.4824181 0.361239016
18.5824242 0.562487960
18.6824226 0.367314994
18.7824211 0.695227027
18.8824196 0.437667012
18.9824181 0.592009008
19.0824242 0.585803986
19.1824226 0.352368593
19.2824211 0.957104981
19.3824196 0.475697875
19.4824181 0.430836976
19.5824242 0.643733740
19.6824226 0.680469990
19.7824211 0.400413990
19.8824196 0.904958010
19.9824181 0.673418999
20.0824242 0.422064006
20.1824226 0.431338996
20.2824211 0.531295896
20.3824196 0.604449034
20.4824181 0.410234988
20.5824242 0.646584988
20.6824226 0.713984013
20.7824211 0.412671983
20.8824196 0.778146088
20.9824181 0.400007725
21.0824242 0.894787014
21.1824226 0.501605988
21.2824211 0.315827996
21.3824196 0.836954951
21.4824181 0.727074027
21.5824242 0.485719979
21.6824226 0.645210981
21.7824211 0.592523336
21.8824196 0.608806968
21.9824181 0.427015007
22.0824242 0.710178971
22.1824226 0.589190006
22.2824211 0.475107700
22.3824196 0.777875006
22.4824181 0.573760033
22.5824242 0.912430048
22.6824226 0.678366005
22.7824211 0.325525790
22.8824196 0.558620036
22.9824181 0.439801991
23.0824242 0.999903083
23.1824226 0.519719005
23.2824211 0.615359008
23.3824196 0.668044984
23.4824181 0.685240984
23.5824242 0.399264991
23.6824226 0.996517003
23.7824211 0.961545050
23.8824196 0.583714962
23.9824181 0.999204993
24.0824242 0.674379945
24.1824226 0.445958972
24.2824211 0.563632011
24.3824196 0.596898019
24.4824181 0.438706875
24.5824242 0.626926005
24.6824226 0.885962963
24.7824211 0.425963998
24.8824196 0.649393022
24.9824181 0.816838026
25.0824242 0.785972953
25.1824226 0.513518989
25.2824211 0.594623029
25.3824196 0.889230967
25.4824181 0.645903945
25.5824242 0.382969409
25.6824226 0.702453971
25.7824211 0.597181022
25.8824196 0.758423448
25.9824181 0.468770981
26.0824242 0.834945679
26.1824226 0.399753690
26.2824211 0.536813974
26.3824196 0.824517012
26.4824181 0.714318991
26.5824242 0.861985087
26.6824226 0.795031071
26.7824211 0.596431017
26.8824196 0.703544021
26.9824181 0.734323144
27.0824242 0.492407978
27.1824226 0.391517997
27.2824211 1.10376310
27.3824196 0.769398987
27.4824181 0.924216032
27.5824242 0.511961997
27.6824226 0.691169024
27.7824211 1.16623402
27.8824196 0.753216028
27.9824181 0.782652020
28.0824242 0.650588036
28.1824226 0.594635010
28.2824211 0.630707026
28.3824196 0.552825987
28.4824181 1.01689005
28.5824242 0.431439996
28.6824226 0.945686042
28.7824211 0.853479028
28.8824196 0.576056004
28.9824181 0.800119996
29.0824242 0.529011011
29.1824226 0.894241035
29.2824211 0.748286009
29.3824196 0.737015009
29.4824181 0.893370986
29.5824242 0.519230008
29.6824226 0.728791952
29.7824211 0.493151993
29.8824196 0.796144485
29.9824181 0.626124024
30.0824242 0.778037012
30.1824226 0.975531995
30.2824211 0.595735013
30.3824196 0.654142022
30.4824181 0.937489033
30.5824242 1.23711395
30.6824226 0.758145988
30.7824211 1.00540102
30.8824196 0.720422029
30.9824181 0.778748035
31.0824242 0.791535020
31.1824226 0.966508985
31.2824211 0.549090981
31.3824196 0.609104991
31.4824181 0.736120999
31.5824242 1.03890300
31.6824226 0.959591985
31.7824211 0.530179024
31.8824196 0.979938984
31.9824181 0.741286993
32.0824242 0.543009996
32.1824226 1.19053304
32.2824211 0.177966997
32.3824196 0.942909062
32.4824181 0.941488028
32.5824242 0.803079009
32.6824226 0.565585971
32.7824211 0.652485967
32.8824196 1.29288197
32.9824181 0.635372996
33.0824242 0.948005974
33.1824226 0.598631024
33.2824211 0.819074988
33.3824196 0.650849998
33.4824181 0.461274981
33.5824242 0.591037989
33.6824226 0.695167005
33.7824211 0.707746029
33.8824196 1.27976894
33.9824181 0.739424944
34.0824242 0.534012973
34.1824226 0.945411980
34.2824211 0.802423000
34.3824196 0.726737976
34.4824181 1.01665795
34.5824242 0.943154931
34.6824226 0.465106905
34.7824211 0.518178999
34.8824196 0.755959988
34.9824181 0.966696024
35.0824242 0.787714005
35.1824226 0.655151010
35.2824211 0.613708019
35.3824196 0.929950953
35.4824181 0.976179957
35.5824242 0.788724005
35.6824226 0.668869972
35.7824211 0.584957004
35.8824196 0.600323021
35.9824181 0.593144000
36.0824242 0.803731024
36.1824226 0.723092973
36.2824211 0.696623981
36.3824196 0.768853664
36.4824181 0.704689980
36.5824242 0.690170050
36.6824226 0.761101961
36.7824211 0.898801029
36.8824196 0.482535005
36.9824181 0.859118938
37.0824242 0.786450028
37.1824226 0.443230003
37.2824211 0.914584041
37.3824196 0.531882048
37.4824181 0.662792981
37.5824242 0.796036959
37.6824226 0.531852007
37.7824211 0.884229004
37.8824196 0.626412988
37.9824181 0.432107985
38.0824242 0.651898742
38.1824226 0.527202010
38.2824211 0.423600197
38.3824196 0.792011976
38.4824181 0.407553017
38.5824242 0.711758971
38.6824226 0.641990006
38.7824211 0.784983039
38.8824196 0.313543975
38.9824181 0.347221017
39.0824242 0.674658000
39.1824226 0.846067071
39.2824211 0.388907999
39.3824196 0.622776985
39.4824181 0.682305992
39.5824242 0.549616992
39.6824226 0.533580005
39.7824211 0.609022498
39.8824196 0.285697192
39.9824181 0.524849534
40.0824242 0.669472158
40.1824226 0.536834955
40.2824211 0.731413007
40.3824196 0.551342010
40.4824181 0.654247224
40.5824242 0.679282010
40.6824226 0.524004996
40.7824211 9.24896970E-02
40.8824196 0.323980004
40.9824181 0.853006005
41.0824242 0.572358012
41.1824226 0.401980996
41.2824211 0.558144569
41.3824196 0.358883411
41.4824181 0.375019014
41.5824242 0.404030025
41.6824226 0.442818999
41.7824211 0.597649992
41.8824196 0.213797003
41.9824181 0.827805996
42.0824242 0.403463006
42.1824226 0.00000000
42.2824211 0.580810010
42.3824196 0.461697698
42.4824181 0.351655006
42.5824242 0.385644495
42.6824226 0.685407102
42.7824211 0.422726989
42.8824196 0.330435008
42.9824181 0.506008983
43.0824242 0.461275995
43.1824226 0.491126001
43.2824211 0.450640023
43.3824196 0.347392023
43.4824181 0.567082047
43.5824242 0.302837014
43.6824226 0.453180283
43.7824211 0.437949002
43.8824196 0.402698100
43.9824181 0.00000000
44.0824242 0.689337969
44.1824226 0.314243078
44.2824211 0.418392003
44.3824196 7.60018006E-02
44.4824181 0.738747001
44.5824242 0.156575993
44.6824226 0.465114892
44.7824211 0.438485980
44.8824196 0.393947989
44.9824181 0.363065004
45.0824242 0.385426998
45.1824226 0.548174143
45.2824211 0.376169980
45.3824196 0.458144009
45.4824181 0.132137999
45.5824242 0.342428207
45.6824226 0.222434998
45.7824211 0.514470994
45.8824196 0.253705293
45.9824181 0.257133603
46.0824242 0.449331105
46.1824226 0.135403007
46.2824211 0.271314025
46.3824196 0.395181805
46.4824181 0.533079028
46.5824242 0.275512308
46.6824226 0.291357398
46.7824211 0.374204814
46.8824196 0.349697292
46.9824181 0.333559275
47.0824242 0.219476804
47.1824226 0.398510009
47.2824211 0.230297893
47.3824196 0.651040018
47.4824181 0.158062309
47.5824242 0.296054006
47.6824226 0.264177978
47.7824211 0.311303794
47.8824196 0.367366016
47.9824181 0.482919395
48.0824242 0.327165008
48.1824226 0.526301622
48.2824211 0.150703996
48.3824196 0.379756391
48.4824181 0.393410981
48.5824242 0.350230992
48.6824226 0.131049007
48.7824211 0.208507702
48.8824196 0.504635036
48.9824181 0.281602710
49.0824242 0.233833998
49.1824226 0.188976496
49.2824211 0.112108998
49.3824196 0.468246102
49.4824181 0.101369001
49.5824242 0.287856698
49.6824226 0.491797984
49.7824211 0.140839994
49.8824196 0.320266008
49.9824181 0.317874998
50.0824242 0.310050786
50.1824226 0.359212995
50.2824211 0.419634998
50.3824196 0.192259699
50.4824181 0.285542995
50.5824242 0.430751979
50.6824226 0.209631994
50.7824211 0.215185001
50.8824196 0.339304000
50.9824181 0.320372999
51.0824242 0.00000000
51.1824226 0.441891015
51.2824211 0.209958300
51.3824196 0.323881090
51.4824181 0.203396395
51.5824242 0.319038600
51.6824226 0.261768103
51.7824211 0.349169612
51.8824196 0.313638300
51.9824181 0.423232019
52.0824242 0.295051992
52.1824226 0.115994997
52.2824211 0.290304005
52.3824196 0.153183997
52.4824181 0.319412202
52.5824242 0.304638714
52.6824226 0.283603013
52.7824211 0.282669485
52.8824196 0.213231996
52.9824181 0.209065005
53.0824242 0.236631498
53.1824226 0.245306402
53.2824211 0.207369685
53.3824196 0.162941799
53.4824181 0.162680402
53.5824242 0.253077596
53.6824226 0.202555999
53.7824211 0.230000496
53.8824196 0.356362075
53.9824181 0.227085501
54.0824242 0.181572005
54.1824226 0.292063206
54.2824211 0.201128110
54.3824196 0.145272598
54.4824181 0.148983508
54.5824242 0.245987102
54.6824226 0.289845794
54.7824211 0.397197396
54.8824196 0.123347998
54.9824181 0.337645829
55.0824242 9.89528969E-02
55.1824226 0.453639507
55.2824211 0.197745502
55.3824196 0.318839312
55.4824181 0.162459105
55.5824242 0.286734402
55.6824226 0.236691505
55.7824211 0.331152707
55.8824196 0.258141011
55.9824181 0.206042692
56.0824242 0.303011715
56.1824226 0.177645802
56.2824211 0.280423522
56.3824196 0.200605303
56.4824181 0.519620419
56.5824242 0.161520004
56.6824226 0.358763993
56.7824211 0.263619006
56.8824196 0.225348994
56.9824181 0.101452000
57.0824242 0.186009303
57.1824226 0.337823719
57.2824211 0.255943000
57.3824196 0.274337113
57.4824181 0.232588798
57.5824242 0.418681383
57.6824226 0.194102496
57.7824211 0.390326798
57.8824196 0.175139993
57.9824181 0.184995696
58.0824242 0.289356709
58.1824226 0.206953004
58.2824211 0.146379307
58.3824196 0.368244082
58.4824181 0.172551900
58.5824242 0.261152506
58.6824226 0.167642891
58.7824211 0.386220902
58.8824196 0.317323506
58.9824181 0.182674304
59.0824242 0.288622409
59.1824226 0.330545008
59.2824211 9.86168012E-02
59.3824196 0.215283602
59.4824181 0.295533985
59.5824242 0.176615804
59.6824226 0.406033695
59.7824211 0.118743002
59.8824196 0.494067311
59.9824181 8.42041001E-02
60.0824242 0.339429021
60.1824226 0.249382004
60.2824211 0.256593704
60.3824196 0.315858006
60.4824181 0.198763102
60.5824242 0.214552000
60.6824226 0.209283501
60.7824211 0.370007396
60.8824196 0.183133096
60.9824181 0.484885991
61.0824242 8.56179968E-02
61.1824226 0.400399506
61.2824211 0.167851806
61.3824196 0.299036205
61.4824181 0.236470193
61.5824242 0.256206810
61.6824226 0.143674895
61.7824211 0.192260504
61.8824196 0.273247600
61.9824181 0.304471910
62.0824242 0.322539002
62.1824226 0.260133803
62.2824211 0.292095006
62.3824196 0.107740000
62.4824181 0.335842907
62.5824242 0.306300402
62.6824226 0.444282830
62.7824211 0.195467398
62.8824196 0.181400806
62.9824181 0.203927904
63.0824242 0.227465004
63.1824226 0.282876998
63.2824211 0.354168802
63.3824196 0.200462192
63.4824181 0.264802992
63.5824242 0.344933003
63.6824226 0.195246205
63.7824211 0.303218186
63.8824196 0.327315986
63.9824181 0.116219997
64.0824280 0.439208031
64.1824188 0.324241012
64.2824249 0.272928119
64.3824158 0.301584899
64.4824219 0.219137013
64.5824280 0.248299003
64.6824188 0.368349016
64.7824249 0.110945001
64.8824158 0.206510991
64.9824219 0.347541004
65.0824280 0.237650007
65.1824188 0.249618992
65.2824249 0.245840013
65.3824158 0.235107988
65.4824219 0.370362014
65.5824280 0.261449009
65.6824188 0.261774987
65.7824249 0.400481999
65.8824158 0.219350994
65.9824219 0.248818010
66.0824280 0.244188011
66.1824188 0.229928002
66.2824249 0.290354401
66.3824158 0.150765508
66.4824219 0.270397991
66.5824280 0.221339196
66.6824188 0.201550007
66.7824249 0.341771007
66.8824158 0.135061994
66.9824219 0.286006987
67.0824280 0.391626000
67.1824188 0.127067998
67.2824249 0.132910997
67.3824158 0.522710979
67.4824219 0.125257000
67.5824280 0.285133004
67.6824188 0.258412987
67.7824249 0.00000000
67.8824158 0.243683994
67.9824219 0.402985990
68.0824280 0.136647999
68.1824265 0.271198004
68.2824249 0.251985997
68.3824234 0.139183998
68.4824219 0.282135010
68.5824280 0.146649003
68.6824265 0.287903011
68.7824249 0.318400979
68.8824234 0.416813999
68.9824219 0.157261997
69.0824280 0.285584003
69.1824265 0.259119004
69.2824249 0.132892996
69.3824234 0.143531993
69.4824219 0.395344019
69.5824280 0.143142998
69.6824265 0.387382984
69.7824249 0.124945998
69.8824234 0.267754018
69.9824219 0.102664001
70.0824280 0.562646985
70.1824265 0.103910998
70.2824249 0.283046007
70.3824234 0.315645874
70.4824219 0.301470995
70.5824280 0.286803007
70.6824265 0.278219998
70.7824249 0.162245005
70.8824234 0.638880968
70.9824219 0.00000000
71.0824280 0.470631003
71.1824265 0.155268997
71.2824249 0.460739970
71.3824234 0.146427006
71.4824219 0.152356997
71.5824280 0.185832411
71.6824265 0.120380998
71.7824249 0.192478403
71.8824234 0.216989800
71.9824219 0.164592996
72.0824280 0.312205017
72.1824265 0.395437986
72.2824249 0.286711007
72.3824234 0.137658000
72.4824219 0.155805007
72.5824280 0.296226978
72.6824265 0.200452998
72.7824249 0.154999003
72.8824234 0.141249999
72.9824219 0.280887991
73.0824280 0.110798001
73.1824265 0.275330991
73.2824249 0.233018011
73.3824234 0.121669002
73.4824219 0.122844003
73.5824280 0.105570003
73.6824265 0.290962994
73.7824249 0.345603704
73.8824234 0.137412995
73.9824219 0.166291997
74.0824280 0.00000000
74.1824265 0.374293983
74.2824249 0.309026480
74.3824234 0.161273003
74.4824219 0.140599996
74.5824280 0.153852001
74.6824265 0.269171804
74.7824249 0.163380995
74.8824234 0.265404999
74.9824219 0.102659002
75.0824280 6.46213964E-02
75.1824265 0.187303007
75.2824249 0.308173001
75.3824234 0.115827002
75.4824219 0.433559000
75.5824280 0.160796002
75.6824265 0.00000000
75.7824249 0.356325984
75.8824234 0.122746997
75.9824219 0.178195000
76.0824280 0.160823002
76.1824265 0.168594003
76.2824249 0.289669007
76.3824234 0.157821000
76.4824219 7.50396028E-02
76.5824280 0.209950998
76.6824265 0.341387987
76.7824249 0.176801994
76.8824234 4.52863015E-02
76.9824219 0.170947000
77.0824280 0.00000000
77.1824265 0.337643981
77.2824249 0.146564007
77.3824234 0.259381413
77.4824219 0.129802004
77.5824280 0.00000000
77.6824265 0.225601003
77.7824249 0.00000000
77.8824234 0.401504993
77.9824219 0.167063996
78.0824280 0.169183001
78.1824265 0.152757004
78.2824249 0.202274993
78.3824234 0.214263007
78.4824219 0.00000000
78.5824280 0.405354977
78.6824265 0.00000000
78.7824249 0.00000000
78.8824234 0.373853981
78.9824219 0.189640000
79.0824280 0.00000000
79.1824265 0.446074992
79.2824249 0.129830003
79.3824234 0.00000000
79.4824219 0.421450019
79.5824280 0.202344999
79.6824265 0.00000000
79.7824249 0.258139014
79.8824234 0.140194997
79.9824219 6.77632987E-02
80.0824280 0.121298000
80.1824265 0.00000000
80.2824249 0.242195904
80.3824234 0.147646993
80.4824219 0.180123001
80.5824280 0.00000000
80.6824265 0.372900009
80.7824249 0.00000000
80.8824234 0.257252008
80.9824219 0.210568994
81.0824280 0.00000000
81.1824265 0.461190015
81.2824249 0.00000000
81.3824234 0.198100001
81.4824295 0.00000000
81.5824203 0.00000000
81.6824265 0.00000000
81.7824326 0.290208995
81.8824234 0.201517999
81.9824295 8.42180997E-02
82.0824203 0.181087002
82.1824265 0.446614981
82.2824326 0.197780997
82.3824234 0.00000000