  -46.6175804       1.68692991E-02           1
  -46.5175819       0.00000000               0
  -46.4175797       0.00000000               0
  -46.3175812       0.00000000               0
  -46.2175789       0.00000000               0
  -46.1175804       0.00000000               0
  -46.0175819       0.00000000               0
  -45.9175797       0.00000000               0
  -45.8175812       0.00000000               0
  -45.7175789       0.00000000               0
  -45.6175804       1.51193002E-02           1
  -45.5175819       0.00000000               0
  -45.4175797       0.00000000               0
  -45.3175812       0.00000000               0
  -45.2175789       0.00000000               0
  -45.1175804       1.64758991E-02           1
  -45.0175819       0.00000000               0
  -44.9175797       0.00000000               0
  -44.8175812       0.00000000               0
  -44.7175789       0.00000000               0
  -44.6175804       0.00000000               0
  -44.5175819       0.00000000               0
  -44.4175797       0.00000000               0
  -44.3175812       0.00000000               0
  -44.2175789       0.00000000               0
  -44.1175804       0.00000000               0
  -44.0175819       0.00000000               0
  -43.9175797       0.00000000               0
  -43.8175812       0.00000000               0
  -43.7175789       0.00000000               0
  -43.6175804       0.00000000               0
  -43.5175819       0.00000000               0
  -43.4175797       0.00000000               0
  -43.3175812       0.00000000               0
  -43.2175789       0.00000000               0
  -43.1175804       0.00000000               0
  -43.0175819       0.00000000               0
  -42.9175797       0.00000000               0
  -42.8175812       0.00000000               0
  -42.7175789       0.00000000               0
  -42.6175804       0.00000000               0
  -42.5175819       0.00000000               0
  -42.4175797       0.00000000               0
  -42.3175812       0.00000000               0
  -42.2175789       0.00000000               0
  -42.1175804       0.00000000               0
  -42.0175819       0.00000000               0
  -41.9175797       0.00000000               0
  -41.8175812       0.00000000               0
  -41.7175789       0.00000000               0
  -41.6175804       0.00000000               0
  -41.5175819       0.00000000               0
  -41.4175797       0.00000000               0
  -41.3175812       0.00000000               0
  -41.2175789       0.00000000               0
  -41.1175804       0.00000000               0
  -41.0175819       0.00000000               0
  -40.9175797       0.00000000               0
  -40.8175812       0.00000000               0
  -40.7175789       0.00000000               0
  -40.6175804       0.00000000               0
  -40.5175819       0.00000000               0
  -40.4175797       0.00000000               0
  -40.3175812       0.00000000               0
  -40.2175789       0.00000000               0
  -40.1175804       0.00000000               0
  -40.0175819       0.00000000               0
  -39.9175797       0.00000000               0
  -39.8175812       0.00000000               0
  -39.7175789       0.00000000               0
  -39.6175804       0.00000000               0
  -39.5175819       0.00000000               0
  -39.4175797       0.00000000               0
  -39.3175812       0.00000000               0
  -39.2175789       0.00000000               0
  -39.1175804       0.00000000               0
  -39.0175819       0.00000000               0
  -38.9175797       0.00000000               0
  -38.8175812       0.00000000               0
  -38.7175789       0.00000000               0
  -38.6175804       0.00000000               0
  -38.5175819       0.00000000               0
  -38.4175797       0.00000000               0
  -38.3175812       0.00000000               0
  -38.2175789       0.00000000               0
  -38.1175804       0.00000000               0
  -38.0175819       0.00000000               0
  -37.9175797       0.00000000               0
  -37.8175812       0.00000000               0
  -37.7175789       0.00000000               0
  -37.6175804       0.00000000               0
  -37.5175819       0.00000000               0
  -37.4175797       0.00000000               0
  -37.3175812       0.00000000               0
  -37.2175789       0.00000000               0
  -37.1175804       0.00000000               0
  -37.0175819       0.00000000               0
  -36.9175797       0.00000000               0
  -36.8175812       0.00000000               0
  -36.7175789       0.00000000               0
  -36.6175804       0.00000000               0
  -36.5175819       0.00000000               0
  -36.4175797       0.00000000               0
  -36.3175812       0.00000000               0
  -36.2175789       0.00000000               0
  -36.1175804       0.00000000               0
  -36.0175819       0.00000000               0
  -35.9175797       0.00000000               0
  -35.8175812       0.00000000               0
  -35.7175789       0.00000000               0
  -35.6175804       0.00000000               0
  -35.5175819       0.00000000               0
  -35.4175797       0.00000000               0
  -35.3175812       0.00000000               0
  -35.2175789       0.00000000               0
  -35.1175804       0.00000000               0
  -35.0175819       0.00000000               0
  -34.9175797       0.00000000               0
  -34.8175812       2.30270001E-04           1
  -34.7175789       0.00000000               0
  -34.6175804       4.36219998E-04           2
  -34.5175819       0.00000000               0
  -34.4175797       1.66330006E-04           1
  -34.3175812       7.33399938E-05           2
  -34.2175789       0.00000000               0
  -34.1175804       2.80500008E-05           1
  -34.0175819       1.31240013E-04           3
  -33.9175797       0.00000000               0
  -33.8175812       3.12299999E-05           2
  -33.7175789       2.21200007E-05           2
  -33.6175804       1.04000001E-05           1
  -33.5175819       2.46499985E-05           2
  -33.4175797       3.38099999E-05           2
  -33.3175812       0.00000000               0
  -33.2175789       3.27700000E-05           2
  -33.1175804       6.06000003E-06           1
  -33.0175819       0.00000000               0
  -32.9175797       2.09600003E-05           2
  -32.8175812       0.00000000               0
  -32.7175789       0.00000000               0
  -32.6175804       5.14400017E-05           1
  -32.5175819       0.00000000               0
  -32.4175797       0.00000000               0
  -32.3175812       0.00000000               0
  -32.2175789       0.00000000               0
  -32.1175804       0.00000000               0
  -32.0175819       0.00000000               0
  -31.9175797       0.00000000               0
  -31.8175812       0.00000000               0
  -31.7175789       0.00000000               0
  -31.6175804       0.00000000               0
  -31.5175819       0.00000000               0
  -31.4175797       0.00000000               0
  -31.3175812       0.00000000               0
  -31.2175789       0.00000000               0
  -31.1175804       0.00000000               0
  -31.0175819       0.00000000               0
  -30.9175797       0.00000000               0
  -30.8175812       0.00000000               0
  -30.7175789       0.00000000               0
  -30.6175804       0.00000000               0
  -30.5175819       0.00000000               0
  -30.4175797       0.00000000               0
  -30.3175774       0.00000000               0
  -30.2175789       0.00000000               0
  -30.1175804       0.00000000               0
  -30.0175819       0.00000000               0
  -29.9175797       0.00000000               0
  -29.8175774       0.00000000               0
  -29.7175789       0.00000000               0
  -29.6175804       0.00000000               0
  -29.5175819       0.00000000               0
  -29.4175797       0.00000000               0
  -29.3175774       0.00000000               0
  -29.2175789       0.00000000               0
  -29.1175804       0.00000000               0
  -29.0175819       0.00000000               0
  -28.9175797       0.00000000               0
  -28.8175774       0.00000000               0
  -28.7175789       0.00000000               0
  -28.6175804       0.00000000               0
  -28.5175819       0.00000000               0
  -28.4175797       0.00000000               0
  -28.3175774       0.00000000               0
  -28.2175789       0.00000000               0
  -28.1175804       0.00000000               0
  -28.0175819       0.00000000               0
  -27.9175797       0.00000000               0
  -27.8175774       0.00000000               0
  -27.7175808       0.00000000               0
  -27.6175804       0.00000000               0
  -27.5175800       0.00000000               0
  -27.4175797       0.00000000               0
  -27.3175793       0.00000000               0
  -27.2175808       0.00000000               0
  -27.1175804       0.00000000               0
  -27.0175800       0.00000000               0
  -26.9175797       0.00000000               0
  -26.8175793       0.00000000               0
  -26.7175808       0.00000000               0
  -26.6175804       0.00000000               0
  -26.5175800       0.00000000               0
  -26.4175797       0.00000000               0
  -26.3175793       0.00000000               0
  -26.2175808       0.00000000               0
  -26.1175804       0.00000000               0
  -26.0175800       0.00000000               0
  -25.9175797       0.00000000               0
  -25.8175793       0.00000000               0
  -25.7175808       0.00000000               0
  -25.6175804       0.00000000               0
  -25.5175800       0.00000000               0
  -25.4175797       0.00000000               0
  -25.3175793       0.00000000               0
  -25.2175808       0.00000000               0
  -25.1175804       0.00000000               0
  -25.0175800       0.00000000               0
  -24.9175797       0.00000000               0
  -24.8175793       0.00000000               0
  -24.7175808       0.00000000               0
  -24.6175804       0.00000000               0
  -24.5175800       0.00000000               0
  -24.4175797       0.00000000               0
  -24.3175793       0.00000000               0
  -24.2175808       0.00000000               0
  -24.1175804       0.00000000               0
  -24.0175800       0.00000000               0
  -23.9175797      0.604231000               1
  -23.8175793       0.00000000               0
  -23.7175808       0.00000000               0
  -23.6175804      0.614394009               1
  -23.5175800       1.83659601               3
  -23.4175797       0.00000000               0
  -23.3175793       2.44167113               4
  -23.2175808       3.04528522               5
  -23.1175804       2.42873216               4
  -23.0175800       1.80941498               3
  -22.9175797       3.60743594               6
  -22.8175793       1.20775104               2
  -22.7175808       3.62351108               6
  -22.6175804       3.03041697               5
  -22.5175800       2.42217016               4
  -22.4175797       1.80195105               3
  -22.3175793       2.39775705               4
  -22.2175808       2.40257502               4
  -22.1175804       1.20084202               2
  -22.0175800       1.78888297               3
  -21.9175797       1.80447304               3
  -21.8175793       1.80677605               3
  -21.7175808       1.19308305               2
  -21.6175804       1.78543997               3
  -21.5175800      0.599375010               1
  -21.4175797       0.00000000               0
  -21.3175793      0.596771002               1
  -21.2175808      0.581942022               1
  -21.1175804       1.77012110               3
  -21.0175800       0.00000000               0
  -20.9175797       1.18043995               2
  -20.8175793       0.00000000               0
  -20.7175808       0.00000000               0
  -20.6175804       0.00000000               0
  -20.5175800      0.586278021               1
  -20.4175797      0.592360020               1
  -20.3175793       0.00000000               0
  -20.2175808      0.595283985               1
  -20.1175804       0.00000000               0
  -20.0175800       0.00000000               0
  -19.9175797       0.00000000               0
  -19.8175793       0.00000000               0
  -19.7175808       0.00000000               0
  -19.6175804       0.00000000               0
  -19.5175800       0.00000000               0
  -19.4175797       0.00000000               0
  -19.3175793       0.00000000               0
  -19.2175808       0.00000000               0
  -19.1175804       0.00000000               0
  -19.0175800       0.00000000               0
  -18.9175797       0.00000000               0
  -18.8175793       0.00000000               0
  -18.7175808       0.00000000               0
  -18.6175804       0.00000000               0
  -18.5175800       0.00000000               0
  -18.4175797       0.00000000               0
  -18.3175793       0.00000000               0
  -18.2175808       0.00000000               0
  -18.1175804       0.00000000               0
  -18.0175800       0.00000000               0
  -17.9175797       0.00000000               0
  -17.8175793       0.00000000               0
  -17.7175808       0.00000000               0
  -17.6175804       0.00000000               0
  -17.5175800       0.00000000               0
  -17.4175797       0.00000000               0
  -17.3175793       0.00000000               0
  -17.2175808       0.00000000               0
  -17.1175804       0.00000000               0
  -17.0175800       0.00000000               0
  -16.9175797       0.00000000               0
  -16.8175793       0.00000000               0
  -16.7175808       0.00000000               0
  -16.6175804       0.00000000               0
  -16.5175800       0.00000000               0
  -16.4175797       0.00000000               0
  -16.3175793       0.00000000               0
  -16.2175808       0.00000000               0
  -16.1175804       0.00000000               0
  -16.0175800       0.00000000               0
  -15.9175797       0.00000000               0
  -15.8175793       0.00000000               0
  -15.7175808       0.00000000               0
  -15.6175804       0.00000000               0
  -15.5175800       0.00000000               0
  -15.4175797       0.00000000               0
  -15.3175793       0.00000000               0
  -15.2175808       0.00000000               0
  -15.1175804       0.00000000               0
  -15.0175800       0.00000000               0
  -14.9175797       0.00000000               0
  -14.8175793       0.00000000               0
  -14.7175808       0.00000000               0
  -14.6175804       0.00000000               0
  -14.5175781       0.00000000               0
  -14.4175797       0.00000000               0
  -14.3175812       0.00000000               0
  -14.2175789       0.00000000               0
  -14.1175804       0.00000000               0
  -14.0175781       0.00000000               0
  -13.9175797       0.00000000               0
  -13.8175812       0.00000000               0
  -13.7175789       0.00000000               0
  -13.6175804       0.00000000               0
  -13.5175781       0.00000000               0
  -13.4175797       0.00000000               0
  -13.3175812       0.00000000               0
  -13.2175789       0.00000000               0
  -13.1175804       0.00000000               0
  -13.0175781       9.34800046E-05           2
  -12.9175797       0.00000000               0
  -12.8175812       0.00000000               0
  -12.7175789       3.51149996E-04           2
  -12.6175804       0.00000000               0
  -12.5175781       0.00000000               0
  -12.4175797       1.24459999E-04           2
  -12.3175812       7.66300000E-05           1
  -12.2175789       2.46100011E-04           1
  -12.1175804       1.01049998E-04           2
  -12.0175781       9.11519979E-04           2
  -11.9175797      0.689388990               1
  -11.8175802       8.54149985E-04           3
  -11.7175779       1.11775706E-02           2
  -11.6175795       1.36898994               2
  -11.5175772      0.695977271               2
  -11.4175787       2.13177919               6
  -11.3175802       2.07102394               3
  -11.2175779       2.36539578               6
  -11.1175795       2.41683102               6
  -11.0175772       1.59884572               4
  -10.9175787       1.84740210               5
  -10.8175802       4.89080667              10
  -10.7175779       2.10736203               5
  -10.6175795       2.16217184               7
  -10.5175772       1.34096146               4
  -10.4175787       4.03553772               8
  -10.3175802       1.52009380               5
  -10.2175779       4.18779182               9
  -10.1175795       2.11408710               5
  -10.0175772       2.09985471               4
  -9.91757870       2.10198903               7
  -9.81758022       1.40035069               3
  -9.71757793       2.10709953               5
  -9.61757946       1.39114547               3
  -9.51757717      0.695634007               1
  -9.41757870      0.690157413               2
  -9.31758022      0.698457301               3
  -9.21757793      0.694476008               1
  -9.11757946      0.682526648               3
  -9.01757717      0.679423988               1
  -8.91757870      0.681219995               1
  -8.81758022       1.37175250               4
  -8.71757793      0.666077018               1
  -8.61757946       1.88756514               5
  -8.51757717       1.80318117               5
  -8.41757870       2.95701408               5
  -8.31758022       1.59801292               3
  -8.21757793      0.796371996               3
  -8.11757946       1.59962797               2
  -8.01757717       1.61006594               2
  -7.91757870       1.61626101               2
  -7.81758022       1.62744999               2
  -7.71757793       3.24838519               4
  -7.61757946       1.65294325               3
  -7.51757717       1.63831496               2
  -7.41757870       3.28670502               4
  -7.31758022       1.67629659               3
  -7.21757793       2.49529028               6
  -7.11757946       2.47169995               3
  -7.01757717       3.29230690               4
  -6.91757870       2.56709862               4
  -6.81758022       3.35508490               4
  -6.71757793       3.22961307               4
  -6.61757946       3.30106497               4
  -6.51757717       3.45795393               5
  -6.41757870       2.51029396               5
  -6.31758022       2.59675407               4
  -6.21757793       2.63428283               4
  -6.11757946       1.49347758               4
  -6.01757717      0.945495546               6
  -5.91757870       3.31458187               5
  -5.81758022       3.31364012               5
  -5.71757793       2.48773742               5
  -5.61757946      0.554139018               4
  -5.51757717       4.79782724               6
  -5.41757870       2.47502565               5
  -5.31758022       5.13756466              11
  -5.21757793       4.49852037               9
  -5.11757946       5.33690500              14
  -5.01757717       3.60317898              13
  -4.91757870       5.91288662              13
  -4.81758022       5.64280939              10
  -4.71757793       4.46749115               5
  -4.61757946       2.72254992               8
  -4.51757717       5.39874458               9
  -4.41757870       3.65836549              12
  -4.31758022      0.935805321               5
  -4.21757793       2.41974497               9
  -4.11757946       2.10791969              11
  -4.01757717       1.65313721               6
  -3.91757870      0.804767013               1
  -3.81758022       1.12983453               7
  -3.71757793       1.76670957               9
  -3.61757946       1.57794416              11
  -3.51757717      0.939484596               8
  -3.41757870       1.26901364               9
  -3.31758022       1.04617393               6
  -3.21757793      0.795108557               8
  -3.11757946      0.646740973              10
  -3.01757717      0.556818008               5
  -2.91757870      0.840698600               5
  -2.81758022      0.862016439               4
  -2.71757793       4.55241427E-02           8
  -2.61757946       5.46293110E-02           9
  -2.51757717       3.84302102E-02           8
  -2.41757870       1.61251202E-02           6
  -2.31758022       1.47423893E-02           4
  -2.21757793       1.49699394E-02           4
  -2.11757946       2.29373798E-02           6
  -2.01757717       4.22783978E-02           5
  -1.91757870       2.67413314E-02           9
  -1.81758022       2.96682715E-02          11
  -1.71757793       3.40186991E-02          10
  -1.61757946       2.94036102E-02          10
  -1.51757717       1.83310397E-02          10
  -1.41757870       2.33774912E-02           9
  -1.31758022       1.84083190E-02           7
  -1.21757793       2.91129705E-02           5
  -1.11757946       2.04962604E-02           6
  -1.01757717       2.32556295E-02           7
 -0.917578697       8.22439045E-03           5
 -0.817580223       4.99100275E-02           9
 -0.717577934       4.04817909E-02           6
 -0.617579460       1.45752095E-02           7
 -0.517577171       1.29508898E-02           5
 -0.417578697       3.90886106E-02           5
 -0.317580223       1.62081011E-02           2
 -0.217577934       6.08462580E-02           8
 -0.117579460       2.32349113E-02           8
  -1.75771713E-02   3.31802992E-03           4
   8.24213028E-02   8.10624007E-03           6
  0.182419538       4.06904006E-03           7
  0.282421827       3.21582705E-02           8
  0.382420301       1.55622493E-02           4
  0.482422590       4.95075993E-03           7
  0.582421064       1.42520806E-02          16
  0.682419538       3.73311676E-02           4
  0.782421827       2.98792007E-03           2
  0.882420301       0.00000000               0
  0.982422590       2.45552994E-02           1
   1.08242106       8.24320014E-04           1
   1.18241954       5.29982010E-03           1
   1.28242183       2.80971006E-02           3
   1.38242030       5.00705019E-02           3
   1.48242259       3.67739797E-02           4
   1.58242106       0.00000000               0
   1.68241954       0.00000000               0
   1.78242183       1.06553000E-03           2
   1.88242030      0.115489997               1
   1.98242259       1.54943895E-02           2
   2.08242106      0.108392000               1
   2.18241954       0.00000000               0
   2.28242183      0.122111000               1
   2.38242030       6.36692997E-03           1
   2.48242259      0.328357697               3
   2.58242106       7.04069017E-03           1
   2.68241954      0.321115255               2
   2.78242183       0.00000000               0
   2.88242030       1.50471004E-02           1
   2.98242259       4.60004024E-02           3
   3.08242106       0.00000000               0
   3.18241954      0.319086730               5
   3.28242183      0.371566415               4
   3.38242030       9.55936015E-02           3
   3.48242259      0.436294973               3
   3.58242106      0.342761993               1
   3.68241954       0.00000000               0
   3.78242183      0.218245000               1
   3.88242030      0.656340957               3
   3.98242259      0.461627781               5
   4.08242130      0.328082949               4
   4.18241978      0.712084115               4
   4.28242207      0.350196987               1
   4.38242054      0.405475289               2
   4.48242283      0.346960008               2
   4.58242130      0.379078805               2
   4.68241978      0.304277003               1
   4.78242207      0.768031359               5
   4.88242054      0.638186812               5
   4.98242283      0.463290006               2
   5.08242130      0.315853477               3
   5.18241978      0.629562974               2
   5.28242207       1.05461800               5
   5.38242054      0.456032574               3
   5.48242283       1.03230727               5
   5.58242130       0.00000000               0
   5.68241978      0.738259017               3
   5.78242207      0.479761004               2
   5.88242054      0.311229885               2
   5.98242283      0.552356005               3
   6.08242130      0.951874018               4
   6.18241978      0.725731909               5
   6.28242207      0.663432002               3
   6.38242054      0.534722030               2
   6.48242283      0.834046960               3
   6.58242130      0.524618030               2
   6.68241978      0.940382957               4
   6.78242207      0.553394020               2
   6.88242054      0.631353021               3
   6.98242283      0.860470951               4
   7.08242130       1.05995107               4
   7.18241978      0.849861026               4
   7.28242207      0.629483521               4
   7.38242054      0.742547989               4
   7.48242283      0.779533982               4
   7.58242130      0.441774994               2
   7.68241978      0.963433981               4
   7.78242207       1.17315602               5
   7.88242054      0.635640025               3
   7.98242283      0.638358951               3
   8.08242130       1.33949494               7
   8.18241978      0.767812014               5
   8.28242207      0.850549042               4
   8.38242054       1.13506794               6
   8.48242283       1.52924597               6
   8.58242130      0.860207975               4
   8.68241978       1.39502704               6
   8.78242207       1.13131869               7
   8.88242054       1.10855496               5
   8.98242283      0.705788016               3
   9.08242130      0.868142009               4
   9.18241978       1.05032206               5
   9.28242207       1.20891404               5
   9.38242054       1.11768472               6
   9.48242283       1.00705123               5
   9.58242130       1.34755504               6
   9.68241978      0.692295194               4
   9.78242207       1.04956508               5
   9.88242054       1.05466402               5
   9.98242283       1.21878302               5
   10.0824213      0.746999979               4
   10.1824198       1.01227856               7
   10.2824221      0.754413009               4
   10.3824205       1.28312600               6
   10.4824228      0.737566888               4
   10.5824213      0.965761006               5
   10.6824198      0.735351026               4
   10.7824221      0.828924954               4
   10.8824205      0.926312089               4
   10.9824228       1.09887695               6
   11.0824213      0.886527061               5
   11.1824198      0.997521996               5
   11.2824221      0.777208984               5
   11.3824205      0.933027685               6
   11.4824228      0.717370212               6
   11.5824213      0.821856976               5
   11.6824198      0.530505002               3
   11.7824221      0.850241005               6
   11.8824205      0.811471939               5
   11.9824228      0.787097991               5
   12.0824213      0.667301059               4
   12.1824198      0.614221990               4
   12.2824221      0.655906022               4
   12.3824205      0.634677052               5
   12.4824228      0.549258530               6
   12.5824213      0.483304024               4
   12.6824198      0.653005779               5
   12.7824221      0.589959979               4
   12.8824205      0.478538275               5
   12.9824228      0.479890496               5
   13.0824213      0.695766687               6
   13.1824198      0.491193295               4
   13.2824221      0.494545996               4
   13.3824205      0.475547373               4
   13.4824228      0.355446011               3
   13.5824213      0.416473627               4
   13.6824198      0.490026414               4
   13.7824221      0.466664016               3
   13.8824205      0.720685005               5
   13.9824228      0.286266983               2
   14.0824213      0.344148010               2
   14.1824198      0.553855002               4
   14.2824221      0.260776997               2
   14.3824205      0.566565990               4
   14.4824228      0.482746989               3
   14.5824213      0.580413997               4
   14.6824198      0.614512026               4
   14.7824221      0.554004967               4
   14.8824205      0.508402705               4
   14.9824228      0.301651001               2
   15.0824213      0.548532009               4
   15.1824198      0.282423794               3
   15.2824221      0.422313929               4
   15.3824205      0.696756005               5
   15.4824228      0.544656038               4
   15.5824213      0.392425001               3
   15.6824198      0.420572579               4
   15.7824221      0.596647978               4
   15.8824205      0.403203905               4
   15.9824228      0.576045632               7
   16.0824203      0.547978878               5
   16.1824188      0.383440495               4
   16.2824211      0.492924571               5
   16.3824196      0.437064201               4
   16.4824219      0.449835300               5
   16.5824203      0.529361308               6
   16.6824188      0.410001099               5
   16.7824211      0.629183233               7
   16.8824196      0.510765910               5
   16.9824219      0.416575313               4
   17.0824203      0.503301978               4