-46.6175804 1.64440004E-04
-46.5175819 0.00000000
-46.4175797 0.00000000
-46.3175812 0.00000000
-46.2175789 0.00000000
-46.1175804 0.00000000
-46.0175819 0.00000000
-45.9175797 0.00000000
-45.8175812 0.00000000
-45.7175789 0.00000000
-45.6175804 1.40100997E-03
-45.5175819 0.00000000
-45.4175797 0.00000000
-45.3175812 0.00000000
-45.2175789 0.00000000
-45.1175804 4.07039979E-03
-45.0175819 0.00000000
-44.9175797 0.00000000
-44.8175812 0.00000000
-44.7175789 0.00000000
-44.6175804 0.00000000
-44.5175819 0.00000000
-44.4175797 0.00000000
-44.3175812 0.00000000
-44.2175789 0.00000000
-44.1175804 0.00000000
-44.0175819 0.00000000
-43.9175797 0.00000000
-43.8175812 0.00000000
-43.7175789 0.00000000
-43.6175804 0.00000000
-43.5175819 0.00000000
-43.4175797 0.00000000
-43.3175812 0.00000000
-43.2175789 0.00000000
-43.1175804 0.00000000
-43.0175819 0.00000000
-42.9175797 0.00000000
-42.8175812 0.00000000
-42.7175789 0.00000000
-42.6175804 0.00000000
-42.5175819 0.00000000
-42.4175797 0.00000000
-42.3175812 0.00000000
-42.2175789 0.00000000
-42.1175804 0.00000000
-42.0175819 0.00000000
-41.9175797 0.00000000
-41.8175812 0.00000000
-41.7175789 0.00000000
-41.6175804 0.00000000
-41.5175819 0.00000000
-41.4175797 0.00000000
-41.3175812 0.00000000
-41.2175789 0.00000000
-41.1175804 0.00000000
-41.0175819 0.00000000
-40.9175797 0.00000000
-40.8175812 0.00000000
-40.7175789 0.00000000
-40.6175804 0.00000000
-40.5175819 0.00000000
-40.4175797 0.00000000
-40.3175812 0.00000000
-40.2175789 0.00000000
-40.1175804 0.00000000
-40.0175819 0.00000000
-39.9175797 0.00000000
-39.8175812 0.00000000
-39.7175789 0.00000000
-39.6175804 0.00000000
-39.5175819 0.00000000
-39.4175797 0.00000000
-39.3175812 0.00000000
-39.2175789 0.00000000
-39.1175804 0.00000000
-39.0175819 0.00000000
-38.9175797 0.00000000
-38.8175812 0.00000000
-38.7175789 0.00000000
-38.6175804 0.00000000
-38.5175819 0.00000000
-38.4175797 0.00000000
-38.3175812 0.00000000
-38.2175789 0.00000000
-38.1175804 0.00000000
-38.0175819 0.00000000
-37.9175797 0.00000000
-37.8175812 0.00000000
-37.7175789 0.00000000
-37.6175804 0.00000000
-37.5175819 0.00000000
-37.4175797 0.00000000
-37.3175812 0.00000000
-37.2175789 0.00000000
-37.1175804 0.00000000
-37.0175819 0.00000000
-36.9175797 0.00000000
-36.8175812 0.00000000
-36.7175789 0.00000000
-36.6175804 0.00000000
-36.5175819 0.00000000
-36.4175797 0.00000000
-36.3175812 0.00000000
-36.2175789 0.00000000
-36.1175804 0.00000000
-36.0175819 0.00000000
-35.9175797 0.00000000
-35.8175812 0.00000000
-35.7175789 0.00000000
-35.6175804 0.00000000
-35.5175819 0.00000000
-35.4175797 0.00000000
-35.3175812 0.00000000
-35.2175789 0.00000000
-35.1175804 0.00000000
-35.0175819 0.00000000
-34.9175797 0.00000000
-34.8175812 0.00000000
-34.7175789 0.00000000
-34.6175804 0.00000000
-34.5175819 0.00000000
-34.4175797 0.00000000
-34.3175812 0.00000000
-34.2175789 0.00000000
-34.1175804 0.00000000
-34.0175819 0.00000000
-33.9175797 0.00000000
-33.8175812 0.00000000
-33.7175789 0.00000000
-33.6175804 0.00000000
-33.5175819 0.00000000
-33.4175797 0.00000000
-33.3175812 0.00000000
-33.2175789 0.00000000
-33.1175804 0.00000000
-33.0175819 0.00000000
-32.9175797 0.00000000
-32.8175812 0.00000000
-32.7175789 0.00000000
-32.6175804 0.00000000
-32.5175819 0.00000000
-32.4175797 0.00000000
-32.3175812 0.00000000
-32.2175789 0.00000000
-32.1175804 0.00000000
-32.0175819 0.00000000
-31.9175797 0.00000000
-31.8175812 0.00000000
-31.7175789 0.00000000
-31.6175804 0.00000000
-31.5175819 0.00000000
-31.4175797 0.00000000
-31.3175812 0.00000000
-31.2175789 0.00000000
-31.1175804 0.00000000
-31.0175819 0.00000000
-30.9175797 0.00000000
-30.8175812 0.00000000
-30.7175789 0.00000000
-30.6175804 0.00000000
-30.5175819 0.00000000
-30.4175797 0.00000000
-30.3175774 0.00000000
-30.2175789 0.00000000
-30.1175804 0.00000000
-30.0175819 0.00000000
-29.9175797 0.00000000
-29.8175774 0.00000000
-29.7175789 0.00000000
-29.6175804 0.00000000
-29.5175819 0.00000000
-29.4175797 0.00000000
-29.3175774 0.00000000
-29.2175789 0.00000000
-29.1175804 0.00000000
-29.0175819 0.00000000
-28.9175797 0.00000000
-28.8175774 0.00000000
-28.7175789 0.00000000
-28.6175804 0.00000000
-28.5175819 0.00000000
-28.4175797 0.00000000
-28.3175774 0.00000000
-28.2175789 0.00000000
-28.1175804 0.00000000
-28.0175819 0.00000000
-27.9175797 0.00000000
-27.8175774 0.00000000
-27.7175808 0.00000000
-27.6175804 0.00000000
-27.5175800 0.00000000
-27.4175797 0.00000000
-27.3175793 0.00000000
-27.2175808 0.00000000
-27.1175804 0.00000000
-27.0175800 0.00000000
-26.9175797 0.00000000
-26.8175793 0.00000000
-26.7175808 0.00000000
-26.6175804 0.00000000
-26.5175800 0.00000000
-26.4175797 0.00000000
-26.3175793 0.00000000
-26.2175808 0.00000000
-26.1175804 0.00000000
-26.0175800 0.00000000
-25.9175797 0.00000000
-25.8175793 0.00000000
-25.7175808 0.00000000
-25.6175804 0.00000000
-25.5175800 0.00000000
-25.4175797 0.00000000
-25.3175793 0.00000000
-25.2175808 0.00000000
-25.1175804 0.00000000
-25.0175800 0.00000000
-24.9175797 0.00000000
-24.8175793 0.00000000
-24.7175808 0.00000000
-24.6175804 0.00000000
-24.5175800 0.00000000
-24.4175797 0.00000000
-24.3175793 0.00000000
-24.2175808 0.00000000
-24.1175804 0.00000000
-24.0175800 0.00000000
-23.9175797 0.00000000
-23.8175793 0.00000000
-23.7175808 0.00000000
-23.6175804 0.00000000
-23.5175800 3.09999990E-07
-23.4175797 0.00000000
-23.3175793 4.63000015E-06
-23.2175808 1.31000002E-06
-23.1175804 3.87999989E-06
-23.0175800 8.83000030E-06
-22.9175797 2.48900014E-05
-22.8175793 1.89000002E-06
-22.7175808 2.74099984E-05
-22.6175804 4.93999978E-05
-22.5175800 1.40459990E-04
-22.4175797 3.75199998E-05
-22.3175793 4.59999995E-07
-22.2175808 7.47620012E-04
-22.1175804 3.58040008E-04
-22.0175800 3.33400021E-05
-21.9175797 1.22622000E-02
-21.8175793 9.30153020E-03
-21.7175808 5.05489996E-04
-21.6175804 3.28985713E-02
-21.5175800 6.41899998E-04
-21.4175797 0.00000000
-21.3175793 2.05764994E-02
-21.2175808 2.26258002E-02
-21.1175804 5.13379984E-02
-21.0175800 0.00000000
-20.9175797 2.54025012E-02
-20.8175793 0.00000000
-20.7175808 0.00000000
-20.6175804 0.00000000
-20.5175800 1.64272003E-02
-20.4175797 1.64915007E-02
-20.3175793 0.00000000
-20.2175808 1.32844998E-02
-20.1175804 0.00000000
-20.0175800 0.00000000
-19.9175797 0.00000000
-19.8175793 0.00000000
-19.7175808 0.00000000
-19.6175804 0.00000000
-19.5175800 0.00000000
-19.4175797 0.00000000
-19.3175793 0.00000000
-19.2175808 0.00000000
-19.1175804 0.00000000
-19.0175800 0.00000000
-18.9175797 0.00000000
-18.8175793 0.00000000
-18.7175808 0.00000000
-18.6175804 0.00000000
-18.5175800 0.00000000
-18.4175797 0.00000000
-18.3175793 0.00000000
-18.2175808 0.00000000
-18.1175804 0.00000000
-18.0175800 0.00000000
-17.9175797 0.00000000
-17.8175793 0.00000000
-17.7175808 0.00000000
-17.6175804 0.00000000
-17.5175800 0.00000000
-17.4175797 0.00000000
-17.3175793 0.00000000
-17.2175808 0.00000000
-17.1175804 0.00000000
-17.0175800 0.00000000
-16.9175797 0.00000000
-16.8175793 0.00000000
-16.7175808 0.00000000
-16.6175804 0.00000000
-16.5175800 0.00000000
-16.4175797 0.00000000
-16.3175793 0.00000000
-16.2175808 0.00000000
-16.1175804 0.00000000
-16.0175800 0.00000000
-15.9175797 0.00000000
-15.8175793 0.00000000
-15.7175808 0.00000000
-15.6175804 0.00000000
-15.5175800 0.00000000
-15.4175797 0.00000000
-15.3175793 0.00000000
-15.2175808 0.00000000
-15.1175804 0.00000000
-15.0175800 0.00000000
-14.9175797 0.00000000
-14.8175793 0.00000000
-14.7175808 0.00000000
-14.6175804 0.00000000
-14.5175781 0.00000000
-14.4175797 0.00000000
-14.3175812 0.00000000
-14.2175789 0.00000000
-14.1175804 0.00000000
-14.0175781 0.00000000
-13.9175797 0.00000000
-13.8175812 0.00000000
-13.7175789 0.00000000
-13.6175804 0.00000000
-13.5175781 0.00000000
-13.4175797 0.00000000
-13.3175812 0.00000000
-13.2175789 0.00000000
-13.1175804 0.00000000
-13.0175781 0.00000000
-12.9175797 0.00000000
-12.8175812 0.00000000
-12.7175789 0.00000000
-12.6175804 0.00000000
-12.5175781 0.00000000
-12.4175797 0.00000000
-12.3175812 0.00000000
-12.2175789 0.00000000
-12.1175804 0.00000000
-12.0175781 0.00000000
-11.9175797 0.00000000
-11.8175802 0.00000000
-11.7175779 0.00000000
-11.6175795 0.00000000
-11.5175772 2.73999990E-06
-11.4175787 1.80000001E-07
-11.3175802 3.99999998E-08
-11.2175779 1.27999988E-06
-11.1175795 2.62000003E-06
-11.0175772 5.88999956E-06
-10.9175787 2.79999995E-07
-10.8175802 3.22000005E-06
-10.7175779 3.90799978E-05
-10.6175795 9.71000009E-06
-10.5175772 3.54000008E-06
-10.4175787 6.23900050E-05
-10.3175802 1.45399999E-05
-10.2175779 5.64299989E-05
-10.1175795 1.55980000E-04
-10.0175772 2.16100016E-05
-9.91757870 1.29469990E-04
-9.81758022 3.68039997E-04
-9.71757793 3.81270016E-04
-9.61757946 1.21421097E-02
-9.51757717 2.17485009E-03
-9.41757870 8.27183016E-03
-9.31758022 1.61367003E-03
-9.21757793 8.17088969E-03
-9.11757946 1.11648999E-02
-9.01757717 9.82715003E-03
-8.91757870 1.19139003E-02
-8.81758022 2.22486109E-02
-8.71757793 1.08136004E-02
-8.61757946 2.58716494E-02
-8.51757717 2.49864310E-02
-8.41757870 2.34293714E-02
-8.31758022 1.20000004E-05
-8.21757793 9.16100034E-05
-8.11757946 1.82500007E-05
-8.01757717 1.78099999E-05
-7.91757870 6.08999972E-06
-7.81758022 2.35700005E-04
-7.71757793 1.93499989E-04
-7.61757946 0.128859833
-7.51757717 1.14198006E-03
-7.41757870 4.50089981E-04
-7.31758022 0.178899974
-7.21757793 0.602827311
-7.11757946 8.36683065E-03
-7.01757717 9.80439968E-03
-6.91757870 0.344815284
-6.81758022 5.97899035E-03
-6.71757793 5.86516112E-02
-6.61757946 2.63191294E-02
-6.51757717 0.351870596
-6.41757870 0.808186829
-6.31758022 0.405260324
-6.21757793 0.575577319
-6.11757946 1.15642250
-6.01757717 3.46722770
-5.91757870 0.734295249
-5.81758022 1.01318049
-5.71757793 1.70357680
-5.61757946 2.35581803
-5.51757717 0.366846621
-5.41757870 1.80351710
-5.31758022 4.06939793
-5.21757793 2.77984285
-5.11757946 7.03608227
-5.01757717 7.76906395
-4.91757870 5.68842554
-4.81758022 3.28005171
-4.71757793 5.68784960E-03
-4.61757946 4.34797001
-4.51757717 2.35708046
-4.41757870 7.03942347
-4.31758022 3.58973169
-4.21757793 5.81019258
-4.11757946 8.00177383
-4.01757717 3.70869017
-3.91757870 7.72219971E-02
-3.81758022 5.34481716
-3.71757793 6.45854044
-3.61757946 8.48197651
-3.51757717 6.49297810
-3.41757870 7.09155083
-3.31758022 4.50099087
-3.21757793 6.51209068
-3.11757946 8.57181644
-3.01757717 4.01997900
-2.91757870 3.72070193
-2.81758022 2.84783602
-2.71757793 7.31865597
-2.61757946 8.11996078
-2.51757717 7.25984430
-2.41757870 5.26600790
-2.31758022 3.70648313
-2.21757793 3.83050609
-2.11757946 5.55019665
-2.01757717 4.57554007
-1.91757870 8.41161919
-1.81758022 10.4574947
-1.71757793 9.51137543
-1.61757946 9.15807819
-1.51757717 9.36707592
-1.41757870 8.44329643
-1.31758022 6.60967541
-1.21757793 4.59416199
-1.11757946 5.67729187
-1.01757717 6.78256893
-0.917578697 4.90638399
-0.817580223 8.65403652
-0.717577934 5.61315918
-0.617579460 6.79943180
-0.517577171 4.64761543
-0.417578697 4.48471689
-0.317580223 1.81545210
-0.217577934 7.24613380
-0.117579460 7.74517012
-1.75771713E-02 3.91594911
8.24213028E-02 5.68583775
0.182419538 6.91915894
0.282421827 7.54023886
0.382420301 3.79520798
0.482422590 6.89134121
0.582421064 15.7351542
0.682419538 3.45425797
0.782421827 1.95206702
0.882420301 0.00000000
0.982422590 0.282193989
1.08242106 0.963774025
1.18241954 0.186122999
1.28242183 2.50025606
1.38242030 2.23917007
1.48242259 3.26149988
1.58242106 0.00000000
1.68241954 0.00000000
1.78242183 1.97344494
1.88242030 0.202613994
1.98242259 0.984681010
2.08242106 0.460020006
2.18241954 0.00000000
2.28242183 0.234448999
2.38242030 0.649155021
2.48242259 1.60751069
2.58242106 0.808875978
2.68241954 0.828072309
2.78242183 0.00000000
2.88242030 0.745463014
2.98242259 2.23583508
3.08242106 0.00000000
3.18241954 3.00624871
3.28242183 2.29909086
3.38242030 2.07774806
3.48242259 1.17560792
3.58242106 6.99699000E-02
3.68241954 0.00000000
3.78242183 0.271207988
3.88242030 0.728646994
3.98242259 2.00438881
4.08242130 2.09602213
4.18241978 1.03530526
4.28242207 4.60754987E-03
4.38242054 0.579438806
4.48242283 0.594322979
4.58242130 0.608468413
4.68241978 2.17946004E-02
4.78242207 1.91678691
4.88242054 2.09434295
4.98242283 0.419328988
5.08242130 1.28801107
5.18241978 9.59473997E-02
5.28242207 1.17474306
5.38242054 1.16941404
5.48242283 1.36502779
5.58242130 0.00000000
5.68241978 0.520459294
5.78242207 0.216242000
5.88242054 0.420466006
5.98242283 0.455572188
6.08242130 0.538833976
6.18241978 1.54680097
6.28242207 0.409132183
6.38242054 0.165613905
6.48242283 0.163683996
6.58242130 0.183302298
6.68241978 0.566658914
6.78242207 0.137326702
6.88242054 0.635873020
6.98242283 0.903694987
7.08242130 0.527328730
7.18241978 0.912683070
7.28242207 1.27835906
7.38242054 0.945083976
7.48242283 0.927190185
7.58242130 0.196749896
7.68241978 0.464292794
7.78242207 0.639336288
7.88242054 0.499396026
7.98242283 0.312901288
8.08242130 1.35915995
8.18241978 0.842937827
8.28242207 0.569794059
8.38242054 1.10852623
8.48242283 0.566707134
8.58242130 0.699164987
8.68241978 0.792318881
8.78242207 1.28114069
8.88242054 0.824607015
8.98242283 0.507470608
9.08242130 0.615223467
9.18241978 0.586245716
9.28242207 0.530431032
9.38242054 1.07413054
9.48242283 0.836584449
9.58242130 0.879024327
9.68241978 0.836313248
9.78242207 0.798003793
9.88242054 0.614493012
9.98242283 0.516755879
10.0824213 0.965121984
10.1824198 2.16363907
10.2824221 0.777868986
10.3824205 0.858326733
10.4824228 0.863384068
10.5824213 1.00880170
10.6824198 0.776084960
10.7824221 0.619270027
10.8824205 0.444079518
10.9824228 0.941608071
11.0824213 0.698512435
11.1824198 0.597848892
11.2824221 1.14705801
11.3824205 1.13210797
11.4824228 1.56675696
11.5824213 0.978112042
11.6824198 0.603230476
11.7824221 1.02989793
11.8824205 0.837609291
11.9824228 1.04224503
12.0824213 0.572484672
12.1824198 0.908733010
12.2824221 0.662187099
12.3824205 1.26699400
12.4824228 1.03501248
12.5824213 1.04419506
12.6824198 1.29409337
12.7824221 0.926401019
12.8824205 1.79883802
12.9824228 1.83620608
13.0824213 1.63491797
13.1824198 1.22637403
13.2824221 1.06692696
13.3824205 0.989139020
13.4824228 0.810325980
13.5824213 0.992566943
13.6824198 0.727252305
13.7824221 0.471670598
13.8824205 0.739109039
13.9824228 0.406765997
14.0824213 0.293704003
14.1824198 0.811154962
14.2824221 0.339143991
14.3824205 0.768211007
14.4824228 0.481088996
14.5824213 0.574614406
14.6824198 0.539048910
14.7824221 0.782934010
14.8824205 0.591718554
14.9824228 0.407222003
15.0824213 0.772245765
15.1824198 0.731338978
15.2824221 0.485942364
15.3824205 0.882247984
15.4824228 0.747152686
15.5824213 0.672368050
15.6824198 0.997146666
15.7824221 0.608274460
15.8824205 0.997134984
15.9824228 2.12689710
16.0824203 1.33042395
16.1824188 1.38243198
16.2824211 1.50853395
16.3824196 1.04850101
16.4824219 1.50997591
16.5824203 1.65272498
16.6824188 1.48170376
16.7824211 1.65230525
16.8824196 0.986984491
16.9824219 0.746177018
17.0824203 0.779927015
17.1824188 0.840620041
17.2824211 0.523828030
17.3824196 0.802875996
17.4824181 0.278620303
17.5824242 0.435433596
17.6824226 0.833723962
17.7824211 1.55188060
17.8824196 1.32960796
17.9824181 1.10502398
18.0824242 0.348736584
18.1824226 0.584610999
18.2824211 0.224576294
18.3824196 0.780263960
18.4824181 0.338864982
18.5824242 0.343823016
18.6824226 0.314485997
18.7824211 0.512398779
18.8824196 0.667950988
18.9824181 0.418421209
19.0824242 0.531275094
19.1824226 1.32539701
19.2824211 1.41979599
19.3824196 0.958720922
19.4824181 0.907970011
19.5824242 0.735460997
19.6824226 0.761291027
19.7824211 0.342932999
19.8824196 0.531766593
19.9824181 0.461010098
20.0824242 0.348473996
20.1824226 0.397887021
20.2824211 0.216863096
20.3824196 0.532870710
20.4824181 0.392654002
20.5824242 0.471435010
20.6824226 0.437418997
20.7824211 0.331566006
20.8824196 1.06374693
20.9824181 0.972493052
21.0824242 0.859499574
21.1824226 0.457990289
21.2824211 0.189738706
21.3824196 0.519379318
21.4824181 0.305293202
21.5824242 0.441942990
21.6824226 0.889431000
21.7824211 0.822088003
21.8824196 0.471489787
21.9824181 0.362251997
22.0824242 0.570681989
22.1824226 1.40370893
22.2824211 1.61077499
22.3824196 1.64079499
22.4824181 1.31078303
22.5824242 0.587168992
22.6824226 0.384531617
22.7824211 0.501542032
22.8824196 0.579993963
22.9824181 0.377708018
23.0824242 0.524908960
23.1824226 0.217574507
23.2824211 0.562019348
23.3824196 0.435504019
23.4824181 0.500146389
23.5824242 0.445928991
23.6824226 0.530940294
23.7824211 0.660560608
23.8824196 0.176670000
23.9824181 0.629296005
24.0824242 0.483532995
24.1824226 0.406709999
24.2824211 0.622060001
24.3824196 1.16266692
24.4824181 1.39816797
24.5824242 1.01647592
24.6824226 1.21893096
24.7824211 0.511155009
24.8824196 1.07362700
24.9824181 0.910380006
25.0824242 0.872395992
25.1824226 0.738057017
25.2824211 0.999758005
25.3824196 1.12785804
25.4824181 1.10093296
25.5824242 1.20303893
25.6824226 0.951861322
25.7824211 1.28872395
25.8824196 1.91221917
25.9824181 0.928321004
26.0824242 2.12314916
26.1824226 1.15542698
26.2824211 1.50121999
26.3824196 1.51059902
26.4824181 1.33058703
26.5824242 1.52538109
26.6824226 1.13987803
26.7824211 0.732208014
26.8824196 0.640488029
26.9824181 1.13791001
27.0824242 0.993072987
27.1824226 0.448220998
27.2824211 1.14946401
27.3824196 0.621154964
27.4824181 0.889356971
27.5824242 0.337298989
27.6824226 0.629743993
27.7824211 1.14550996
27.8824196 0.670459986
27.9824181 0.637650967
28.0824242 0.803342044
28.1824226 0.809567928
28.2824211 0.771108031
28.3824196 0.358204007
28.4824181 1.47601509
28.5824242 0.460341990
28.6824226 0.841807008
28.7824211 0.440281004
28.8824196 0.857595026
28.9824181 0.593906999
29.0824242 0.385877997
29.1824226 1.15053105
29.2824211 0.553341985
29.3824196 0.637916982
29.4824181 1.06921101
29.5824242 0.447667003
29.6824226 0.790799022
29.7824211 0.459474981
29.8824196 1.34949994
29.9824181 1.03865099
30.0824242 0.690316021
30.1824226 1.75385201
30.2824211 1.04082203
30.3824196 1.77464008
30.4824181 1.13557601
30.5824242 1.16204906
30.6824226 0.813988984
30.7824211 1.06412053
30.8824196 0.735396028
30.9824181 0.786024988
31.0824242 0.671071410
31.1824226 0.878091931
31.2824211 0.413415015
31.3824196 0.189734697
31.4824181 0.766153991
31.5824242 1.07134104
31.6824226 1.15782797
31.7824211 0.380795002
31.8824196 1.28054202
31.9824181 1.43238091
32.0824242 1.10870397
32.1824226 1.63283193
32.2824211 0.432651997
32.3824196 1.27356696
32.4824181 0.460703969
32.5824242 0.622430503
32.6824226 0.350270003
32.7824211 1.02265799
32.8824196 1.26660609
32.9824181 0.845757782
33.0824242 1.00123930
33.1824226 0.340079010
33.2824211 0.666367054
33.3824196 0.887699008
33.4824181 0.586709976
33.5824242 0.965264022
33.6824226 0.952360988
33.7824211 0.906904042
33.8824196 2.01226306
33.9824181 0.767049968
34.0824242 1.24651992
34.1824226 0.961734712
34.2824211 1.31250596
34.3824196 0.753846049
34.4824181 1.00641501
34.5824242 1.07144499
34.6824226 1.32181799
34.7824211 0.417487979
34.8824196 0.722404063
34.9824181 1.79506707
35.0824242 0.685492992
35.1824226 0.837190032
35.2824211 0.348417997
35.3824196 0.442571998
35.4824181 0.848193049
35.5824242 1.24695897
35.6824226 0.873613000
35.7824211 0.207315400
35.8824196 1.61061859
35.9824181 1.03791094
36.0824242 0.557916999
36.1824226 0.686620772
36.2824211 0.796782017
36.3824196 1.85724998
36.4824181 0.810350001
36.5824242 0.904385030
36.6824226 0.558777034
36.7824211 1.02327406
36.8824196 0.618689001
36.9824181 1.23262298
37.0824242 0.614367008
37.1824226 0.556080997
37.2824211 0.883912981
37.3824196 0.322739005
37.4824181 0.840933025
37.5824242 1.27465999
37.6824226 0.351710021
37.7824211 1.87813592
37.8824196 0.874648333
37.9824181 0.571277976
38.0824242 1.46891201
38.1824226 1.05424201
38.2824211 1.15379202
38.3824196 1.03339303
38.4824181 0.606968045
38.5824242 0.653139532
38.6824226 0.785865009
38.7824211 1.06694305
38.8824196 0.773005009
38.9824181 0.560380995
39.0824242 0.724413037
39.1824226 0.917021155
39.2824211 1.26984406
39.3824196 0.757009983
39.4824181 1.43721795
39.5824242 0.928238988
39.6824226 0.911311984
39.7824211 1.36969101
39.8824196 0.678704977
39.9824181 0.874795020
40.0824242 1.76177299
40.1824226 0.867407024
40.2824211 1.12026000
40.3824196 0.844693005
40.4824181 1.22317696
40.5824242 0.541011274
40.6824226 0.890039980
40.7824211 0.440135002
40.8824196 0.600849986
40.9824181 0.830714345
41.0824242 0.366673797
41.1824226 0.788630962
41.2824211 1.22746110
41.3824196 1.06382501
41.4824181 0.549454987
41.5824242 0.331178606
41.6824226 0.391256005
41.7824211 0.583160996
41.8824196 0.243549004
41.9824181 0.297299027
42.0824242 0.534873009
42.1824226 0.00000000
42.2824211 1.10086000
42.3824196 0.999865055
42.4824181 0.438861817
42.5824242 0.597342849
42.6824226 1.04331005
42.7824211 0.814738035
42.8824196 0.575444996
42.9824181 0.705474019
43.0824242 0.543601155
43.1824226 0.359671414
43.2824211 0.856438041
43.3824196 0.668155015
43.4824181 0.424039721
43.5824242 0.746343017
43.6824226 0.651493847
43.7824211 0.673099995
43.8824196 1.03334403
43.9824181 0.00000000
44.0824242 0.997128785
44.1824226 0.580085814
44.2824211 0.345407009
44.3824196 0.553919971
44.4824181 1.54130447
44.5824242 5.46852984E-02
44.6824226 1.57724810
44.7824211 0.908081055
44.8824196 0.194343194
44.9824181 0.285470009
45.0824242 0.889922500
45.1824226 0.765054047
45.2824211 1.52144396
45.3824196 0.747470021
45.4824181 0.234294996
45.5824242 1.08891404
45.6824226 0.676540017
45.7824211 0.591548681
45.8824196 0.678485036
45.9824181 0.673565030
46.0824242 1.17974794
46.1824226 0.311075985
46.2824211 0.736940980
46.3824196 1.05464303
46.4824181 0.532190979
46.5824242 1.34789300
46.6824226 0.535136104
46.7824211 0.941899002
46.8824196 0.689927340
46.9824181 0.988710999
47.0824242 0.631545007
47.1824226 0.654097319
47.2824211 0.876674056
47.3824196 0.822784603
47.4824181 1.04461408
47.5824242 0.622274995
47.6824226 0.743360996
47.7824211 0.623457909
47.8824196 0.830574989
47.9824181 0.914632022
48.0824242 0.517063022
48.1824226 0.908274949
48.2824211 0.232984006
48.3824196 1.54775500
48.4824181 0.791509032
48.5824242 0.409197986
48.6824226 0.371612996
48.7824211 0.702105522
48.8824196 0.810491979
48.9824181 0.688853979
49.0824242 0.267870098
49.1824226 0.605783999
49.2824211 0.361918002
49.3824196 0.707332075
49.4824181 0.397659004
49.5824242 0.483496308
49.6824226 0.725761652
49.7824211 0.277004987
49.8824196 1.13239396
49.9824181 0.365357995
50.0824242 0.949135005
50.1824226 0.209500015
50.2824211 0.365210205
50.3824196 0.786608994
50.4824181 0.509508014
50.5824242 0.460285008
50.6824226 0.604111016
50.7824211 0.387088180
50.8824196 0.490967005
50.9824181 0.340336919
51.0824242 0.00000000
51.1824226 0.625595987
51.2824211 0.752009988
51.3824196 0.775628150
51.4824181 0.452683806
51.5824242 0.558845043
51.6824226 0.195973501
51.7824211 1.01034808
51.8824196 0.605654001
51.9824181 0.236012891
52.0824242 0.421203971
52.1824226 0.232912004
52.2824211 0.262008399
52.3824196 2.67571006E-02
52.4824181 0.430912793
52.5824242 0.391423523
52.6824226 0.177721605
52.7824211 0.394341201
52.8824196 0.365898103
52.9824181 0.211960599
53.0824242 0.364797413
53.1824226 0.622663081
53.2824211 0.526358008
53.3824196 0.335424602
53.4824181 0.390030116
53.5824242 0.410022289
53.6824226 0.119512305
53.7824211 0.672235668
53.8824196 0.763965249
53.9824181 0.344123453
54.0824242 6.27802014E-02
54.1824226 0.954173923
54.2824211 0.362407088
54.3824196 0.351270795
54.4824181 0.582760513
54.5824242 0.442330301
54.6824226 1.23194492
54.7824211 0.629416049
54.8824196 0.170304999
54.9824181 0.963959336
55.0824242 2.95470003E-02
55.1824226 1.24872553
55.2824211 0.489052713
55.3824196 0.320666313
55.4824181 0.547520995
55.5824242 0.547911823
55.6824226 0.839830995
55.7824211 1.04283202
55.8824196 0.478474915
55.9824181 0.177733704
56.0824242 0.946949005
56.1824226 0.635434031
56.2824211 0.543774605
56.3824196 0.347109973
56.4824181 0.815799296
56.5824242 0.427528203
56.6824226 0.999816000
56.7824211 0.159223303
56.8824196 1.04418707
56.9824181 7.22951964E-02
57.0824242 0.389677197
57.1824226 0.819400787
57.2824211 0.530728996
57.3824196 0.725122333
57.4824181 0.460940719
57.5824242 1.22952724
57.6824226 0.348695010
57.7824211 0.649850190
57.8824196 0.458136797
57.9824181 0.350876987
58.0824242 0.546391606
58.1824226 9.10718963E-02
58.2824211 0.460578114
58.3824196 0.363570511
58.4824181 0.279856592
58.5824242 0.266647816
58.6824226 0.184164703
58.7824211 0.462833494
58.8824196 0.458055019
58.9824181 0.126052499
59.0824242 0.310786009
59.1824226 0.324055612
59.2824211 7.40107000E-02
59.3824196 1.01837087
59.4824181 0.246162996
59.5824242 9.98173058E-02
59.6824226 0.416011512
59.7824211 3.07251997E-02
59.8824196 0.804081559
59.9824181 4.00578007E-02
60.0824242 0.243837506
60.1824226 0.152878404
60.2824211 0.469052285
60.3824196 0.232196510
60.4824181 0.197038203
60.5824242 0.197311491
60.6824226 0.263884097
60.7824211 0.710520983
60.8824196 0.355336010
60.9824181 0.861446142
61.0824242 0.198139995
61.1824226 0.413877189
61.2824211 0.415412605
61.3824196 0.410173088
61.4824181 0.513025165
61.5824242 0.755597353
61.6824226 0.510005236
61.7824211 0.170559794
61.8824196 0.610962987
61.9824181 0.298417181
62.0824242 0.137177899
62.1824226 0.595714092
62.2824211 0.305411994
62.3824196 4.35964987E-02
62.4824181 0.278521597
62.5824242 0.143935397
62.6824226 0.385247678
62.7824211 0.169835597
62.8824196 0.382390976
62.9824181 8.69503021E-02
63.0824242 7.20651001E-02
63.1824226 0.396016091
63.2824211 0.142389402
63.3824196 0.365528017
63.4824181 0.552523255
63.5824242 0.217915684
63.6824226 0.300363004
63.7824211 0.347854406
63.8824196 0.105107099
63.9824181 3.80785987E-02
64.0824280 0.236011997
64.1824188 0.155022591
64.2824249 0.108870700
64.3824158 7.20361993E-02
64.4824219 9.16140005E-02
64.5824280 7.91345984E-02
64.6824188 0.136108801
64.7824249 4.22607996E-02
64.8824158 5.88531010E-02
64.9824219 0.111033604
65.0824280 4.20318022E-02
65.1824188 7.89621994E-02
65.2824249 4.22964990E-02
65.3824158 1.12663703E-02
65.4824219 8.59186947E-02
65.5824280 6.99056983E-02
65.6824188 7.80989975E-02
65.7824249 4.63464037E-02
65.8824158 4.04821001E-02
65.9824219 8.62051994E-02
66.0824280 6.86312988E-02
66.1824188 7.06639886E-02
66.2824249 9.71319005E-02
66.3824158 3.82797010E-02
66.4824219 3.80004980E-02
66.5824280 5.43466210E-02
66.6824188 2.92495005E-02
66.7824249 6.96737021E-02
66.8824158 3.66753004E-02
66.9824219 8.32778960E-02
67.0824280 8.13985169E-02
67.1824188 3.93593013E-02
67.2824249 3.55370007E-02
67.3824158 0.144655094
67.4824219 7.50150979E-02
67.5824280 7.90894032E-02
67.6824188 0.103890002
67.7824249 0.00000000
67.8824158 6.98817000E-02
67.9824219 9.17460993E-02
68.0824280 2.80905999E-02
68.1824265 8.34116042E-02
68.2824249 0.163928390
68.3824234 4.61154990E-02
68.4824219 7.15100989E-02
68.5824280 2.33954992E-02
68.6824265 3.45615000E-02
68.7824249 4.00903225E-02
68.8824234 0.140239105
68.9824219 2.54319999E-02
69.0824280 8.72770026E-02
69.1824265 0.113618501
69.2824249 4.28628996E-02
69.3824234 6.48605973E-02
69.4824219 0.263626516
69.5824280 3.23470011E-02
69.6824265 0.318990290
69.7824249 8.29816982E-02
69.8824234 0.219378710
69.9824219 0.194751993
70.0824280 0.369148076
70.1824265 0.196485996
70.2824249 0.159475297
70.3824234 0.613709986
70.4824219 0.198474795
70.5824280 0.248551011
70.6824265 0.124595001
70.7824249 6.70235977E-02
70.8824234 0.248304129
70.9824219 0.00000000
71.0824280 0.191840708
71.1824265 5.18854000E-02
71.2824249 0.146205097
71.3824234 9.94468033E-02
71.4824219 7.31334984E-02
71.5824280 0.653062642
71.6824265 0.156852007
71.7824249 0.542086005
71.8824234 0.472531021
71.9824219 1.93485003E-02
72.0824280 0.137743801
72.1824265 0.265826583
72.2824249 0.167356104
72.3824234 3.09884008E-02
72.4824219 5.60025014E-02
72.5824280 0.131274596
72.6824265 1.16978996E-02
72.7824249 5.36721982E-02
72.8824234 8.47491995E-02
72.9824219 0.152737200
73.0824280 0.166860998
73.1824265 0.251563311
73.2824249 0.171958506
73.3824234 0.119457997
73.4824219 0.200078994
73.5824280 0.273140997
73.6824265 0.334768713
73.7824249 0.334419608
73.8824234 0.108142003
73.9824219 9.12915990E-02
74.0824280 0.00000000
74.1824265 0.762346983
74.2824249 1.11414397
74.3824234 0.144770995
74.4824219 2.63646003E-02
74.5824280 0.152181000
74.6824265 0.388789803
74.7824249 0.139051005
74.8824234 0.512504995
74.9824219 0.349317998
75.0824280 0.454429001
75.1824265 1.37053002E-02
75.2824249 0.183595002
75.3824234 0.263150007
75.4824219 0.441603690
75.5824280 6.28459007E-02
75.6824265 0.00000000
75.7824249 0.146097198
75.8824234 1.71491003E-03
75.9824219 9.66077000E-02
76.0824280 0.177002996
76.1824265 8.30971971E-02
76.2824249 0.346933603
76.3824234 7.80901015E-02
76.4824219 3.80938011E-03
76.5824280 5.85669987E-02
76.6824265 0.252026021
76.7824249 9.84300002E-02
76.8824234 1.51990000E-02
76.9824219 2.02255007E-02
77.0824280 0.00000000
77.1824265 0.255153000
77.2824249 0.186114997
77.3824234 0.139570400
77.4824219 0.210859001
77.5824280 0.00000000
77.6824265 2.05703992E-02
77.7824249 0.00000000
77.8824234 0.125901282
77.9824219 0.185249001
78.0824280 0.141919002
78.1824265 0.241318002
78.2824249 0.116971999
78.3824234 5.37461005E-02
78.4824219 0.00000000
78.5824280 9.19348970E-02
78.6824265 0.00000000
78.7824249 0.00000000
78.8824234 0.284440279
78.9824219 7.38578988E-03
79.0824280 0.00000000
79.1824265 8.35622996E-02
79.2824249 0.294274002
79.3824234 0.00000000
79.4824219 0.224378064
79.5824280 8.14447030E-02
79.6824265 0.00000000
79.7824249 4.45730984E-02
79.8824234 0.297711998
79.9824219 0.559570014
80.0824280 0.405443996
80.1824265 0.00000000
80.2824249 0.698374808
80.3824234 0.225495994
80.4824219 0.215617999
80.5824280 0.00000000
80.6824265 0.345261991
80.7824249 0.00000000
80.8824234 6.07257001E-02
80.9824219 0.108291999
81.0824280 0.00000000
81.1824265 0.193405509
81.2824249 0.00000000
81.3824234 0.162711993
81.4824295 0.00000000
81.5824203 0.00000000
81.6824265 0.00000000
81.7824326 8.38878006E-02