  -46.6175804       1.64440004E-04           1
  -46.5175819       0.00000000               0
  -46.4175797       0.00000000               0
  -46.3175812       0.00000000               0
  -46.2175789       0.00000000               0
  -46.1175804       0.00000000               0
  -46.0175819       0.00000000               0
  -45.9175797       0.00000000               0
  -45.8175812       0.00000000               0
  -45.7175789       0.00000000               0
  -45.6175804       1.40100997E-03           1
  -45.5175819       0.00000000               0
  -45.4175797       0.00000000               0
  -45.3175812       0.00000000               0
  -45.2175789       0.00000000               0
  -45.1175804       4.07039979E-03           1
  -45.0175819       0.00000000               0
  -44.9175797       0.00000000               0
  -44.8175812       0.00000000               0
  -44.7175789       0.00000000               0
  -44.6175804       0.00000000               0
  -44.5175819       0.00000000               0
  -44.4175797       0.00000000               0
  -44.3175812       0.00000000               0
  -44.2175789       0.00000000               0
  -44.1175804       0.00000000               0
  -44.0175819       0.00000000               0
  -43.9175797       0.00000000               0
  -43.8175812       0.00000000               0
  -43.7175789       0.00000000               0
  -43.6175804       0.00000000               0
  -43.5175819       0.00000000               0
  -43.4175797       0.00000000               0
  -43.3175812       0.00000000               0
  -43.2175789       0.00000000               0
  -43.1175804       0.00000000               0
  -43.0175819       0.00000000               0
  -42.9175797       0.00000000               0
  -42.8175812       0.00000000               0
  -42.7175789       0.00000000               0
  -42.6175804       0.00000000               0
  -42.5175819       0.00000000               0
  -42.4175797       0.00000000               0
  -42.3175812       0.00000000               0
  -42.2175789       0.00000000               0
  -42.1175804       0.00000000               0
  -42.0175819       0.00000000               0
  -41.9175797       0.00000000               0
  -41.8175812       0.00000000               0
  -41.7175789       0.00000000               0
  -41.6175804       0.00000000               0
  -41.5175819       0.00000000               0
  -41.4175797       0.00000000               0
  -41.3175812       0.00000000               0
  -41.2175789       0.00000000               0
  -41.1175804       0.00000000               0
  -41.0175819       0.00000000               0
  -40.9175797       0.00000000               0
  -40.8175812       0.00000000               0
  -40.7175789       0.00000000               0
  -40.6175804       0.00000000               0
  -40.5175819       0.00000000               0
  -40.4175797       0.00000000               0
  -40.3175812       0.00000000               0
  -40.2175789       0.00000000               0
  -40.1175804       0.00000000               0
  -40.0175819       0.00000000               0
  -39.9175797       0.00000000               0
  -39.8175812       0.00000000               0
  -39.7175789       0.00000000               0
  -39.6175804       0.00000000               0
  -39.5175819       0.00000000               0
  -39.4175797       0.00000000               0
  -39.3175812       0.00000000               0
  -39.2175789       0.00000000               0
  -39.1175804       0.00000000               0
  -39.0175819       0.00000000               0
  -38.9175797       0.00000000               0
  -38.8175812       0.00000000               0
  -38.7175789       0.00000000               0
  -38.6175804       0.00000000               0
  -38.5175819       0.00000000               0
  -38.4175797       0.00000000               0
  -38.3175812       0.00000000               0
  -38.2175789       0.00000000               0
  -38.1175804       0.00000000               0
  -38.0175819       0.00000000               0
  -37.9175797       0.00000000               0
  -37.8175812       0.00000000               0
  -37.7175789       0.00000000               0
  -37.6175804       0.00000000               0
  -37.5175819       0.00000000               0
  -37.4175797       0.00000000               0
  -37.3175812       0.00000000               0
  -37.2175789       0.00000000               0
  -37.1175804       0.00000000               0
  -37.0175819       0.00000000               0
  -36.9175797       0.00000000               0
  -36.8175812       0.00000000               0
  -36.7175789       0.00000000               0
  -36.6175804       0.00000000               0
  -36.5175819       0.00000000               0
  -36.4175797       0.00000000               0
  -36.3175812       0.00000000               0
  -36.2175789       0.00000000               0
  -36.1175804       0.00000000               0
  -36.0175819       0.00000000               0
  -35.9175797       0.00000000               0
  -35.8175812       0.00000000               0
  -35.7175789       0.00000000               0
  -35.6175804       0.00000000               0
  -35.5175819       0.00000000               0
  -35.4175797       0.00000000               0
  -35.3175812       0.00000000               0
  -35.2175789       0.00000000               0
  -35.1175804       0.00000000               0
  -35.0175819       0.00000000               0
  -34.9175797       0.00000000               0
  -34.8175812       0.00000000               1
  -34.7175789       0.00000000               0
  -34.6175804       0.00000000               2
  -34.5175819       0.00000000               0
  -34.4175797       0.00000000               1
  -34.3175812       0.00000000               2
  -34.2175789       0.00000000               0
  -34.1175804       0.00000000               1
  -34.0175819       0.00000000               3
  -33.9175797       0.00000000               0
  -33.8175812       0.00000000               2
  -33.7175789       0.00000000               2
  -33.6175804       0.00000000               1
  -33.5175819       0.00000000               2
  -33.4175797       0.00000000               2
  -33.3175812       0.00000000               0
  -33.2175789       0.00000000               2
  -33.1175804       0.00000000               1
  -33.0175819       0.00000000               0
  -32.9175797       0.00000000               2
  -32.8175812       0.00000000               0
  -32.7175789       0.00000000               0
  -32.6175804       0.00000000               1
  -32.5175819       0.00000000               0
  -32.4175797       0.00000000               0
  -32.3175812       0.00000000               0
  -32.2175789       0.00000000               0
  -32.1175804       0.00000000               0
  -32.0175819       0.00000000               0
  -31.9175797       0.00000000               0
  -31.8175812       0.00000000               0
  -31.7175789       0.00000000               0
  -31.6175804       0.00000000               0
  -31.5175819       0.00000000               0
  -31.4175797       0.00000000               0
  -31.3175812       0.00000000               0
  -31.2175789       0.00000000               0
  -31.1175804       0.00000000               0
  -31.0175819       0.00000000               0
  -30.9175797       0.00000000               0
  -30.8175812       0.00000000               0
  -30.7175789       0.00000000               0
  -30.6175804       0.00000000               0
  -30.5175819       0.00000000               0
  -30.4175797       0.00000000               0
  -30.3175774       0.00000000               0
  -30.2175789       0.00000000               0
  -30.1175804       0.00000000               0
  -30.0175819       0.00000000               0
  -29.9175797       0.00000000               0
  -29.8175774       0.00000000               0
  -29.7175789       0.00000000               0
  -29.6175804       0.00000000               0
  -29.5175819       0.00000000               0
  -29.4175797       0.00000000               0
  -29.3175774       0.00000000               0
  -29.2175789       0.00000000               0
  -29.1175804       0.00000000               0
  -29.0175819       0.00000000               0
  -28.9175797       0.00000000               0
  -28.8175774       0.00000000               0
  -28.7175789       0.00000000               0
  -28.6175804       0.00000000               0
  -28.5175819       0.00000000               0
  -28.4175797       0.00000000               0
  -28.3175774       0.00000000               0
  -28.2175789       0.00000000               0
  -28.1175804       0.00000000               0
  -28.0175819       0.00000000               0
  -27.9175797       0.00000000               0
  -27.8175774       0.00000000               0
  -27.7175808       0.00000000               0
  -27.6175804       0.00000000               0
  -27.5175800       0.00000000               0
  -27.4175797       0.00000000               0
  -27.3175793       0.00000000               0
  -27.2175808       0.00000000               0
  -27.1175804       0.00000000               0
  -27.0175800       0.00000000               0
  -26.9175797       0.00000000               0
  -26.8175793       0.00000000               0
  -26.7175808       0.00000000               0
  -26.6175804       0.00000000               0
  -26.5175800       0.00000000               0
  -26.4175797       0.00000000               0
  -26.3175793       0.00000000               0
  -26.2175808       0.00000000               0
  -26.1175804       0.00000000               0
  -26.0175800       0.00000000               0
  -25.9175797       0.00000000               0
  -25.8175793       0.00000000               0
  -25.7175808       0.00000000               0
  -25.6175804       0.00000000               0
  -25.5175800       0.00000000               0
  -25.4175797       0.00000000               0
  -25.3175793       0.00000000               0
  -25.2175808       0.00000000               0
  -25.1175804       0.00000000               0
  -25.0175800       0.00000000               0
  -24.9175797       0.00000000               0
  -24.8175793       0.00000000               0
  -24.7175808       0.00000000               0
  -24.6175804       0.00000000               0
  -24.5175800       0.00000000               0
  -24.4175797       0.00000000               0
  -24.3175793       0.00000000               0
  -24.2175808       0.00000000               0
  -24.1175804       0.00000000               0
  -24.0175800       0.00000000               0
  -23.9175797       0.00000000               1
  -23.8175793       0.00000000               0
  -23.7175808       0.00000000               0
  -23.6175804       0.00000000               1
  -23.5175800       3.09999990E-07           3
  -23.4175797       0.00000000               0
  -23.3175793       4.63000015E-06           4
  -23.2175808       1.31000002E-06           5
  -23.1175804       3.87999989E-06           4
  -23.0175800       8.83000030E-06           3
  -22.9175797       2.48900014E-05           6
  -22.8175793       1.89000002E-06           2
  -22.7175808       2.74099984E-05           6
  -22.6175804       4.93999978E-05           5
  -22.5175800       1.40459990E-04           4
  -22.4175797       3.75199998E-05           3
  -22.3175793       4.59999995E-07           4
  -22.2175808       7.47620012E-04           4
  -22.1175804       3.58040008E-04           2
  -22.0175800       3.33400021E-05           3
  -21.9175797       1.22622000E-02           3
  -21.8175793       9.30153020E-03           3
  -21.7175808       5.05489996E-04           2
  -21.6175804       3.28985713E-02           3
  -21.5175800       6.41899998E-04           1
  -21.4175797       0.00000000               0
  -21.3175793       2.05764994E-02           1
  -21.2175808       2.26258002E-02           1
  -21.1175804       5.13379984E-02           3
  -21.0175800       0.00000000               0
  -20.9175797       2.54025012E-02           2
  -20.8175793       0.00000000               0
  -20.7175808       0.00000000               0
  -20.6175804       0.00000000               0
  -20.5175800       1.64272003E-02           1
  -20.4175797       1.64915007E-02           1
  -20.3175793       0.00000000               0
  -20.2175808       1.32844998E-02           1
  -20.1175804       0.00000000               0
  -20.0175800       0.00000000               0
  -19.9175797       0.00000000               0
  -19.8175793       0.00000000               0
  -19.7175808       0.00000000               0
  -19.6175804       0.00000000               0
  -19.5175800       0.00000000               0
  -19.4175797       0.00000000               0
  -19.3175793       0.00000000               0
  -19.2175808       0.00000000               0
  -19.1175804       0.00000000               0
  -19.0175800       0.00000000               0
  -18.9175797       0.00000000               0
  -18.8175793       0.00000000               0
  -18.7175808       0.00000000               0
  -18.6175804       0.00000000               0
  -18.5175800       0.00000000               0
  -18.4175797       0.00000000               0
  -18.3175793       0.00000000               0
  -18.2175808       0.00000000               0
  -18.1175804       0.00000000               0
  -18.0175800       0.00000000               0
  -17.9175797       0.00000000               0
  -17.8175793       0.00000000               0
  -17.7175808       0.00000000               0
  -17.6175804       0.00000000               0
  -17.5175800       0.00000000               0
  -17.4175797       0.00000000               0
  -17.3175793       0.00000000               0
  -17.2175808       0.00000000               0
  -17.1175804       0.00000000               0
  -17.0175800       0.00000000               0
  -16.9175797       0.00000000               0
  -16.8175793       0.00000000               0
  -16.7175808       0.00000000               0
  -16.6175804       0.00000000               0
  -16.5175800       0.00000000               0
  -16.4175797       0.00000000               0
  -16.3175793       0.00000000               0
  -16.2175808       0.00000000               0
  -16.1175804       0.00000000               0
  -16.0175800       0.00000000               0
  -15.9175797       0.00000000               0
  -15.8175793       0.00000000               0
  -15.7175808       0.00000000               0
  -15.6175804       0.00000000               0
  -15.5175800       0.00000000               0
  -15.4175797       0.00000000               0
  -15.3175793       0.00000000               0
  -15.2175808       0.00000000               0
  -15.1175804       0.00000000               0
  -15.0175800       0.00000000               0
  -14.9175797       0.00000000               0
  -14.8175793       0.00000000               0
  -14.7175808       0.00000000               0
  -14.6175804       0.00000000               0
  -14.5175781       0.00000000               0
  -14.4175797       0.00000000               0
  -14.3175812       0.00000000               0
  -14.2175789       0.00000000               0
  -14.1175804       0.00000000               0
  -14.0175781       0.00000000               0
  -13.9175797       0.00000000               0
  -13.8175812       0.00000000               0
  -13.7175789       0.00000000               0
  -13.6175804       0.00000000               0
  -13.5175781       0.00000000               0
  -13.4175797       0.00000000               0
  -13.3175812       0.00000000               0
  -13.2175789       0.00000000               0
  -13.1175804       0.00000000               0
  -13.0175781       0.00000000               2
  -12.9175797       0.00000000               0
  -12.8175812       0.00000000               0
  -12.7175789       0.00000000               2
  -12.6175804       0.00000000               0
  -12.5175781       0.00000000               0
  -12.4175797       0.00000000               2
  -12.3175812       0.00000000               1
  -12.2175789       0.00000000               1
  -12.1175804       0.00000000               2
  -12.0175781       0.00000000               2
  -11.9175797       0.00000000               1
  -11.8175802       0.00000000               3
  -11.7175779       0.00000000               2
  -11.6175795       0.00000000               2
  -11.5175772       2.73999990E-06           2
  -11.4175787       1.80000001E-07           6
  -11.3175802       3.99999998E-08           3
  -11.2175779       1.27999988E-06           6
  -11.1175795       2.62000003E-06           6
  -11.0175772       5.88999956E-06           4
  -10.9175787       2.79999995E-07           5
  -10.8175802       3.22000005E-06          10
  -10.7175779       3.90799978E-05           5
  -10.6175795       9.71000009E-06           7
  -10.5175772       3.54000008E-06           4
  -10.4175787       6.23900050E-05           8
  -10.3175802       1.45399999E-05           5
  -10.2175779       5.64299989E-05           9
  -10.1175795       1.55980000E-04           5
  -10.0175772       2.16100016E-05           4
  -9.91757870       1.29469990E-04           7
  -9.81758022       3.68039997E-04           3
  -9.71757793       3.81270016E-04           5
  -9.61757946       1.21421097E-02           3
  -9.51757717       2.17485009E-03           1
  -9.41757870       8.27183016E-03           2
  -9.31758022       1.61367003E-03           3
  -9.21757793       8.17088969E-03           1
  -9.11757946       1.11648999E-02           3
  -9.01757717       9.82715003E-03           1
  -8.91757870       1.19139003E-02           1
  -8.81758022       2.22486109E-02           4
  -8.71757793       1.08136004E-02           1
  -8.61757946       2.58716494E-02           5
  -8.51757717       2.49864310E-02           5
  -8.41757870       2.34293714E-02           5
  -8.31758022       1.20000004E-05           3
  -8.21757793       9.16100034E-05           3
  -8.11757946       1.82500007E-05           2
  -8.01757717       1.78099999E-05           2
  -7.91757870       6.08999972E-06           2
  -7.81758022       2.35700005E-04           2
  -7.71757793       1.93499989E-04           4
  -7.61757946      0.128859833               3
  -7.51757717       1.14198006E-03           2
  -7.41757870       4.50089981E-04           4
  -7.31758022      0.178899974               3
  -7.21757793      0.602827311               6
  -7.11757946       8.36683065E-03           3
  -7.01757717       9.80439968E-03           4
  -6.91757870      0.344815284               4
  -6.81758022       5.97899035E-03           4
  -6.71757793       5.86516112E-02           4
  -6.61757946       2.63191294E-02           4
  -6.51757717      0.351870596               5
  -6.41757870      0.808186829               5
  -6.31758022      0.405260324               4
  -6.21757793      0.575577319               4
  -6.11757946       1.15642250               4
  -6.01757717       3.46722770               6
  -5.91757870      0.734295249               5
  -5.81758022       1.01318049               5
  -5.71757793       1.70357680               5
  -5.61757946       2.35581803               4
  -5.51757717      0.366846621               6
  -5.41757870       1.80351710               5
  -5.31758022       4.06939793              11
  -5.21757793       2.77984285               9
  -5.11757946       7.03608227              14
  -5.01757717       7.76906395              13
  -4.91757870       5.68842554              13
  -4.81758022       3.28005171              10
  -4.71757793       5.68784960E-03           5
  -4.61757946       4.34797001               8
  -4.51757717       2.35708046               9
  -4.41757870       7.03942347              12
  -4.31758022       3.58973169               5
  -4.21757793       5.81019258               9
  -4.11757946       8.00177383              11
  -4.01757717       3.70869017               6
  -3.91757870       7.72219971E-02           1
  -3.81758022       5.34481716               7
  -3.71757793       6.45854044               9
  -3.61757946       8.48197651              11
  -3.51757717       6.49297810               8
  -3.41757870       7.09155083               9
  -3.31758022       4.50099087               6
  -3.21757793       6.51209068               8
  -3.11757946       8.57181644              10
  -3.01757717       4.01997900               5
  -2.91757870       3.72070193               5
  -2.81758022       2.84783602               4
  -2.71757793       7.31865597               8
  -2.61757946       8.11996078               9
  -2.51757717       7.25984430               8
  -2.41757870       5.26600790               6
  -2.31758022       3.70648313               4
  -2.21757793       3.83050609               4
  -2.11757946       5.55019665               6
  -2.01757717       4.57554007               5
  -1.91757870       8.41161919               9
  -1.81758022       10.4574947              11
  -1.71757793       9.51137543              10
  -1.61757946       9.15807819              10
  -1.51757717       9.36707592              10
  -1.41757870       8.44329643               9
  -1.31758022       6.60967541               7
  -1.21757793       4.59416199               5
  -1.11757946       5.67729187               6
  -1.01757717       6.78256893               7
 -0.917578697       4.90638399               5
 -0.817580223       8.65403652               9
 -0.717577934       5.61315918               6
 -0.617579460       6.79943180               7
 -0.517577171       4.64761543               5
 -0.417578697       4.48471689               5
 -0.317580223       1.81545210               2
 -0.217577934       7.24613380               8
 -0.117579460       7.74517012               8
  -1.75771713E-02   3.91594911               4
   8.24213028E-02   5.68583775               6
  0.182419538       6.91915894               7
  0.282421827       7.54023886               8
  0.382420301       3.79520798               4
  0.482422590       6.89134121               7
  0.582421064       15.7351542              16
  0.682419538       3.45425797               4
  0.782421827       1.95206702               2
  0.882420301       0.00000000               0
  0.982422590      0.282193989               1
   1.08242106      0.963774025               1
   1.18241954      0.186122999               1
   1.28242183       2.50025606               3
   1.38242030       2.23917007               3
   1.48242259       3.26149988               4
   1.58242106       0.00000000               0
   1.68241954       0.00000000               0
   1.78242183       1.97344494               2
   1.88242030      0.202613994               1
   1.98242259      0.984681010               2
   2.08242106      0.460020006               1
   2.18241954       0.00000000               0
   2.28242183      0.234448999               1
   2.38242030      0.649155021               1
   2.48242259       1.60751069               3
   2.58242106      0.808875978               1
   2.68241954      0.828072309               2
   2.78242183       0.00000000               0
   2.88242030      0.745463014               1
   2.98242259       2.23583508               3
   3.08242106       0.00000000               0
   3.18241954       3.00624871               5
   3.28242183       2.29909086               4
   3.38242030       2.07774806               3
   3.48242259       1.17560792               3
   3.58242106       6.99699000E-02           1
   3.68241954       0.00000000               0
   3.78242183      0.271207988               1
   3.88242030      0.728646994               3
   3.98242259       2.00438881               5
   4.08242130       2.09602213               4
   4.18241978       1.03530526               4
   4.28242207       4.60754987E-03           1
   4.38242054      0.579438806               2
   4.48242283      0.594322979               2
   4.58242130      0.608468413               2
   4.68241978       2.17946004E-02           1
   4.78242207       1.91678691               5
   4.88242054       2.09434295               5
   4.98242283      0.419328988               2
   5.08242130       1.28801107               3
   5.18241978       9.59473997E-02           2
   5.28242207       1.17474306               5
   5.38242054       1.16941404               3
   5.48242283       1.36502779               5
   5.58242130       0.00000000               0
   5.68241978      0.520459294               3
   5.78242207      0.216242000               2
   5.88242054      0.420466006               2
   5.98242283      0.455572188               3
   6.08242130      0.538833976               4
   6.18241978       1.54680097               5
   6.28242207      0.409132183               3
   6.38242054      0.165613905               2
   6.48242283      0.163683996               3
   6.58242130      0.183302298               2
   6.68241978      0.566658914               4
   6.78242207      0.137326702               2
   6.88242054      0.635873020               3
   6.98242283      0.903694987               4
   7.08242130      0.527328730               4
   7.18241978      0.912683070               4
   7.28242207       1.27835906               4
   7.38242054      0.945083976               4
   7.48242283      0.927190185               4
   7.58242130      0.196749896               2
   7.68241978      0.464292794               4
   7.78242207      0.639336288               5
   7.88242054      0.499396026               3
   7.98242283      0.312901288               3
   8.08242130       1.35915995               7
   8.18241978      0.842937827               5
   8.28242207      0.569794059               4
   8.38242054       1.10852623               6
   8.48242283      0.566707134               6
   8.58242130      0.699164987               4
   8.68241978      0.792318881               6
   8.78242207       1.28114069               7
   8.88242054      0.824607015               5
   8.98242283      0.507470608               3
   9.08242130      0.615223467               4
   9.18241978      0.586245716               5
   9.28242207      0.530431032               5
   9.38242054       1.07413054               6
   9.48242283      0.836584449               5
   9.58242130      0.879024327               6
   9.68241978      0.836313248               4
   9.78242207      0.798003793               5
   9.88242054      0.614493012               5
   9.98242283      0.516755879               5
   10.0824213      0.965121984               4
   10.1824198       2.16363907               7
   10.2824221      0.777868986               4
   10.3824205      0.858326733               6
   10.4824228      0.863384068               4
   10.5824213       1.00880170               5
   10.6824198      0.776084960               4
   10.7824221      0.619270027               4
   10.8824205      0.444079518               4
   10.9824228      0.941608071               6
   11.0824213      0.698512435               5
   11.1824198      0.597848892               5
   11.2824221       1.14705801               5
   11.3824205       1.13210797               6
   11.4824228       1.56675696               6
   11.5824213      0.978112042               5
   11.6824198      0.603230476               3
   11.7824221       1.02989793               6
   11.8824205      0.837609291               5
   11.9824228       1.04224503               5
   12.0824213      0.572484672               4
   12.1824198      0.908733010               4
   12.2824221      0.662187099               4
   12.3824205       1.26699400               5
   12.4824228       1.03501248               6
   12.5824213       1.04419506               4
   12.6824198       1.29409337               5
   12.7824221      0.926401019               4
   12.8824205       1.79883802               5
   12.9824228       1.83620608               5
   13.0824213       1.63491797               6
   13.1824198       1.22637403               4
   13.2824221       1.06692696               4
   13.3824205      0.989139020               4
   13.4824228      0.810325980               3
   13.5824213      0.992566943               4
   13.6824198      0.727252305               4
   13.7824221      0.471670598               3
   13.8824205      0.739109039               5
   13.9824228      0.406765997               2
   14.0824213      0.293704003               2
   14.1824198      0.811154962               4
   14.2824221      0.339143991               2
   14.3824205      0.768211007               4
   14.4824228      0.481088996               3
   14.5824213      0.574614406               4
   14.6824198      0.539048910               4
   14.7824221      0.782934010               4
   14.8824205      0.591718554               4
   14.9824228      0.407222003               2
   15.0824213      0.772245765               4
   15.1824198      0.731338978               3
   15.2824221      0.485942364               4
   15.3824205      0.882247984               5
   15.4824228      0.747152686               4
   15.5824213      0.672368050               3
   15.6824198      0.997146666               4
   15.7824221      0.608274460               4
   15.8824205      0.997134984               4
   15.9824228       2.12689710               7
   16.0824203       1.33042395               5
   16.1824188       1.38243198               4
   16.2824211       1.50853395               5
   16.3824196       1.04850101               4
   16.4824219       1.50997591               5
   16.5824203       1.65272498               6
   16.6824188       1.48170376               5
   16.7824211       1.65230525               7
   16.8824196      0.986984491               5
   16.9824219      0.746177018               4
   17.0824203      0.779927015               4