# energy total_dos
-52.82846761683931	7.204214168403075e-26
-52.80146599790738	1.1863257117850903e-25
-52.77446437897544	1.9486570129323946e-25
-52.747462760043504	3.1928682629260775e-25
-52.720461141111564	5.218440413009797e-25
-52.69345952217963	8.507747483481865e-25
-52.6664579032477	1.3835746213279703e-24
-52.639456284315756	2.2444230324615334e-24
-52.61245466538382	3.631792103410805e-24
-52.58545304645189	5.862075084410731e-24
-52.55845142751995	9.438346284712371e-24
-52.531449808588015	1.5158442167736325e-23
-52.504448189656074	2.4284399497847377e-23
-52.47744657072414	3.8807377917900303e-23
-52.45044495179221	6.186077615650601e-23
-52.423443332860266	9.836272757276991e-23
-52.39644171392833	1.5601267922076572e-22
-52.3694400949964	2.4683307902636183e-22
-52.34243847606446	3.895479829048825e-22
-52.315436857132525	6.132431315372818e-22
-52.288435238200584	9.629828641822632e-22
-52.26143361926865	1.5084070695245401e-21
-52.23443200033672	2.3568540688932946e-21
-52.20743038140478	3.673338579865668e-21
-52.18042876247284	5.710884291307396e-21
-52.15342714354091	8.856454494009733e-21
-52.12642552460897	1.3700315346667125e-20
-52.099423905677035	2.1140505388208398e-20
-52.072422286745095	3.253975665696387e-20
-52.04542066781316	4.9960568305424314e-20
-52.01841904888123	7.651640770449665e-20
-51.99141742994929	1.168949928964384e-19
-51.96441581101735	1.7813586988965104e-19
-51.93741419208542	2.707827425563496e-19
-51.91041257315348	4.1058655119573567e-19
-51.883410954221546	6.21015715926771e-19
-51.856409335289605	9.369460737230012e-19
-51.82940771635767	1.4100701986756192e-18
-51.80240609742574	2.116805748038695e-18
-51.7754044784938	3.169825917202639e-18
-51.748402859561864	4.7348252126727544e-18
-51.72140124062993	7.054831166609593e-18
-51.69439962169799	1.048536207603316e-17
-51.667398002766056	1.554513051905206e-17
-51.640396383834116	2.2988966501932997e-17
-51.61339476490218	3.391241013527967e-17
-51.58639314597025	4.99013159134166e-17
-51.55939152703831	7.324525148068677e-17
-51.532389908106374	1.0724105667294378e-16
-51.50538828917444	1.5662346531626759e-16
-51.4783866702425	2.2817428932613257e-16
-51.45138505131057	3.315818257534722e-16
-51.424383432378626	4.806499091351771e-16
-51.39738181344669	6.949941430345478e-16
-51.37038019451476	1.0024150049123094e-15
-51.34337857558282	1.4422086874851517e-15
-51.316376956650885	2.0697733462914977e-15
-51.289375337718944	2.9629996962298964e-15
-51.26237371878701	4.2311123585789805e-15
-51.23537209985508	6.026867506683572e-15
-51.208370480923136	8.563333628360071e-15
-51.1813688619912	1.2136912460228198e-14
-51.15436724305927	1.71588314920356e-14
-51.12736562412733	2.419810371964973e-14
-51.100364005195395	3.403996410935335e-14
-51.073362386263454	4.776513265702508e-14
-51.04636076733152	6.685702050098014e-14
-51.01935914839959	9.334631619856228e-14
-50.99235752946765	1.3000542782057136e-13
-50.96535591053571	1.8060922194503255e-13
-50.93835429160378	2.5028365853968754e-13
-50.91135267267184	3.4597060733464687e-13
-50.884351053739906	4.770457705581344e-13
-50.857349434807965	6.561377612759012e-13
-50.83034781587603	9.002106619976468e-13
-50.8033461969441	1.2319906442246747e-12
-50.77634457801216	1.681840495130645e-12
-50.749342959080224	2.290215443384301e-12
-50.72234134014829	3.110871064877423e-12
-50.69533972121635	4.2150411937555704e-12
-50.668338102284416	5.696862995769641e-12
-50.641336483352475	7.680400506934777e-12
-50.61433486442054	1.0328710413597677e-11
-50.58733324548861	1.3855508749499622e-11
-50.56033162655667	1.8540139409718032e-11
-50.533330007624734	2.4746720753513247e-11
-50.5063283886928	3.294856197228338e-11
-50.47932676976086	4.375920442778379e-11
-50.452325150828926	5.797176427712259e-11
-50.425323531896986	7.660864237887077e-11
-50.39832191296505	1.00984138393031e-10
-50.37132029403312	1.3278307267145248e-10
-50.34431867510118	1.7415919850680802e-10
-50.317317056169244	2.278579972184181e-10
-50.290315437237304	2.9736941027583835e-10
-50.26331381830537	3.8711719934479576e-10
-50.23631219937344	5.026929622007733e-10
-50.209310580441496	6.511443974775207e-10
-50.18230896150956	8.413292337700255e-10
-50.15530734257763	1.084348349916135e-09
-50.12830572364569	1.3940740457408691e-09
-50.101304104713755	1.7877922090926046e-09
-50.07430248578182	2.2869802982041863e-09
-50.04730086684988	2.918246649377161e-09
-50.02029924791795	3.7144606569640524e-09
-49.99329762898601	4.716107879294068e-09
-49.96629601005407	5.972909117641058e-09
-49.93929439112214	7.545748003744083e-09
-49.9122927721902	9.5089576111822e-09
-49.885291153258265	1.195302305881878e-08
-49.858289534326325	1.4987763964065655e-08
-49.83128791539439	1.874606787145317e-08
-49.80428629646246	2.3388253343735475e-08
-49.77728467753052	2.9107149144078043e-08
-49.75028305859858	3.6133983710339335e-08
-49.72328143966665	4.47451867390821e-08
-49.69627982073471	5.527021192846498e-08
-49.669278201802776	6.810049650076828e-08
-49.642276582870835	8.369967871349869e-08
-49.6152749639389	1.0261519879887599e-07
-49.58827334500697	1.254914112208461e-07
-49.56127172607503	1.5308433633136154e-07
-49.534270107143094	1.8627817692264236e-07
-49.50726848821116	2.2610371924572514e-07
-49.48026686927922	2.73758728199993e-07
-49.453265250347286	3.3063043197305485e-07
-49.426263631415345	3.9832017179396265e-07
-49.39926201248341	4.786702670309813e-07
-49.37226039355148	5.737931140240683e-07
-49.34525877461954	6.861024982450231e-07
-49.318257155687604	8.183470531632101e-07
-49.29125553675567	9.736457452056383e-07
-49.26425391782373	1.155525202224287e-06
-49.237252298891796	1.3679586328900115e-06
-49.210250679959856	1.615406006600398e-06
-49.18324906102792	1.9028550782480141e-06
-49.15624744209599	2.235862750271022e-06
-49.12924582316405	2.6205961668251602e-06
-49.102244204232115	3.0638728330691277e-06
-49.07524258530018	3.5731989481903808e-06
-49.04824096636824	4.156805036046812e-06
-49.02123934743631	4.823677854692694e-06
-48.994237728504366	5.583587468487856e-06
-48.96723610957243	6.4471082772081295e-06
-48.9402344906405	7.42563271918244e-06
-48.91323287170856	8.53137630378594e-06
-48.886231252776625	9.77737258669239e-06
-48.859229633844684	1.1177456683257213e-05
-48.83222801491275	1.2746235925397748e-05
-48.80522639598082	1.4499046309421055e-05
-48.77822477704888	1.6451893460111216e-05
-48.75122315811694	1.8621376953433793e-05
-48.72422153918501	2.1024596999174123e-05
-48.69721992025307	2.3679042687713453e-05
-48.670218301321135	2.6602461253130055e-05
-48.6432166823892	2.9812708097912342e-05
-48.61621506345726	3.3327577661617015e-05
-48.58921344452533	3.716461559436622e-05
-48.56221182559339	4.134091311216805e-05
-48.53521020666145	4.587288485918832e-05
-48.50820858772952	5.07760320754382e-05
-48.48120696879758	5.6064693358157514e-05
-48.454205349865646	6.175178580168472e-05
-48.427203730933705	6.784853979237802e-05
-48.40020211200177	7.436423120965763e-05
-48.37320049306984	8.130591522825001e-05
-48.3461988741379	8.867816631585884e-05
-48.319197255205964	9.648282936067599e-05
-48.29219563627403	0.0001047187871299021
-48.26519401734209	0.0001133817494399348
-48.238192398410156	0.00012246406949841844
-48.21119077947822	0.00013195459284632568
-48.18418916054628	0.0001418385441750578
-48.15718754161435	0.00015209745701214418
-48.13018592268241	0.00016270915085480307
-48.103184303750474	0.000173647759781936
-48.07618268481854	0.0001848838158944066
-48.0491810658866	0.0001963843901258119
-48.02217944695467	0.00020811329204131263
-47.995177828022726	0.0002200313292133193
-47.96817620909079	0.00023209662564677237
-47.94117459015886	0.00024426499754417146
-47.91417297122692	0.0002564903834743
-47.887171352294985	0.00026872532476558247
-47.860169733363044	0.0002809214907131838
-47.83316811443111	0.00029303024199811594
-47.80616649549918	0.0003050032245977329
-47.779164876567236	0.00031679298544987425
-47.7521632576353	0.00032835360024775176
-47.72516163870337	0.0003396413030167412
-47.69816001977143	0.0003506151065826381
-47.671158400839495	0.00036123740270542314
-47.64415678190756	0.0003714745305402071
-47.61715516297562	0.0003812973022101319
-47.59015354404369	0.00039068147464176955
-47.56315192511175	0.000399608157422751
-47.53615030617981	0.0004080641472889526
-47.50914868724788	0.0004160421809236343
-47.48214706831594	0.0004235410990357099
-47.455145449384005	0.0004305659161562812
-47.428143830452065	0.0004371277922230589
-47.40114221152013	0.00044324390377838445
-47.3741405925882	0.00044893721445165614
-47.34713897365626	0.00045423614629090447
-47.320137354724324	0.0004591741554097258
-47.29313573579239	0.0004637892172820051
-47.26613411686045	0.0004681232288056447
-47.239132497928516	0.0004722213359271602
-47.21213087899658	0.00047613119713310294
-47.18512926006464	0.0004799021944370967
-47.15812764113271	0.0004835846045926819
-47.13112602220077	0.00048722874411706335
-47.104124403268834	0.0004908841023002348
-47.0771227843369	0.0004945984766852826
-47.05012116540496	0.000498417125532795
-47.023119546473026	0.0005023819515262754
-46.996117927541086	0.0005065307304436203
-46.96911630860915	0.0005108963977259785
-46.94211468967722	0.0005155064048395534
-46.91511307074528	0.0005203821560729956
-46.888111451813344	0.0005255385349727291
-46.86110983288141	0.0005309835280239224
-46.83410821394947	0.0005367179514717158
-46.80710659501754	0.0005427352853834006
-46.7801049760856	0.0005490216172156046
-46.75310335715366	0.000555555695309049
-46.72610173822173	0.0005623090909238054
-46.69910011928979	0.0005692464656845576
-46.672098500357855	0.0005763259396596803
-46.64509688142592	0.0005834995537782429
-46.61809526249398	0.0005907138189189412
-46.59109364356205	0.0005979103428044112
-46.564092024630106	0.0006050265248181193
-46.53709040569817	0.000611996308039375
-46.51008878676624	0.0006187509771708969
-46.4830871678343	0.0006252199906137594
-46.456085548902365	0.0006313318347240553
-46.429083929970425	0.000637014888257571
-46.40208231103849	0.0006421982851635827
-46.37508069210656	0.000646812764214426
-46.34807907317462	0.0006507914944390021
-46.32107745424268	0.0006540708659501467
-46.29407583531075	0.0006565912365004664
-46.26707421637881	0.0006582976249512105
-46.240072597446876	0.0006591403437762202
-46.21307097851494	0.0006590755637302661
-46.186069359583	0.0006580658048711229
-46.15906774065107	0.0006560803492212418
-46.13206612171913	0.0006530955714724195
-46.105064502787194	0.0006490951852611512
-46.07806288385526	0.0006440704036599873
-46.05106126492332	0.0006380200136290588
-46.024059645991386	0.0006309503652406026
-45.997058027059445	0.0006228752775175322
-45.97005640812751	0.0006138158637053941
-45.94305478919558	0.0006038002797164444
-45.91605317026364	0.0005928634003372898
-45.889051551331704	0.0005810464285697175
-45.86204993239977	0.0005683964441712823
-45.83504831346783	0.0005549658980716456
-45.808046694535896	0.000540812059856623
-45.78104507560396	0.0005259964259296177
-45.75404345667202	0.0005105840962754558
-45.72704183774009	0.0004946431279610365
-45.70004021880815	0.00047824387360872935
-45.673038599876215	0.0004614583130712277
-45.64603698094428	0.00044435938642038833
-45.61903536201234	0.0004270203361401853
-45.59203374308041	0.0004095140660878199
-45.565032124148466	0.00039191252436284965
-45.53803050521653	0.00037428611670863705
-45.5110288862846	0.00035670315647122225
-45.48402726735266	0.000339229356468649
-45.457025648420725	0.00032192736738917053
-45.43002402948879	0.00030485636655267113
-45.40302241055685	0.0002880717000494675
-45.37602079162492	0.0002716245804281934
-45.349019172692984	0.0002555618412546611
-45.32201755376104	0.00023992574902106372
-45.29501593482911	0.00022475387206365245
-45.26801431589717	0.00021007900536125325
-45.241012696965235	0.0001959291493495389
-45.2140110780333	0.0001823275402080104
-45.18700945910136	0.0001692927284691209
-45.16000784016943	0.00015683870226955898
-45.13300622123749	0.00014497505111949195
-45.10600460230555	0.00013370716571110074
-45.07900298337362	0.00012303646902515656
-45.05200136444168	0.00011296067382485593
-45.024999745509746	0.00010347406154749196
-44.997998126577805	9.456777761385681e-05
-44.97099650764587	8.623013826739899e-05
-44.94399488871394	7.844694422321093e-05
-44.916993269782	7.120179664351436e-05
-44.889991650850064	6.447641125205396e-05
-44.86299003191813	5.825092674539226e-05
-44.83598841298619	5.250420404434799e-05
-44.808986794054256	4.7214113343316956e-05
-44.78198517512232	4.235780634890761e-05
-44.75498355619038	3.791197154229979e-05
-44.72798193725845	3.385307074253525e-05
-44.70098031832651	3.0157555682101742e-05
-44.673978699394574	2.6802063723936537e-05
-44.64697708046264	2.3763592243511427e-05
-44.6199754615307	2.10196515655646e-05
-44.59297384259877	1.8548396677611114e-05
-44.565972223666826	1.632873823839e-05
-44.53897060473489	1.4340433656641948e-05
-44.51196898580296	1.2564159232831146e-05
-44.48496736687102	1.0981564533603135e-05
-44.457965747939085	9.57531030652166e-06
-44.430964129007144	8.329091342571598e-06
-44.40396251007521	7.227645758236301e-06
-44.37696089114328	6.256752200362044e-06
-44.34995927221134	5.403216478746707e-06
-44.3229576532794	4.654849106813625e-06
-44.29595603434747	4.000435183540174e-06
-44.26895441541553	3.4296979836584605e-06
-44.241952796483595	2.9332575417194333e-06
-44.21495117755166	2.5025854224178526e-06
-44.18794955861972	2.1299567679981465e-06
-44.16094793968779	1.808400606664927e-06
-44.13394632075585	1.5316492965353684e-06
-44.10694470182391	1.2940878702736286e-06
-44.07994308289198	1.0907039382761921e-06
-44.05294146396004	9.170387049494604e-07
-44.025939845028105	7.691395546805685e-07
-43.998938226096165	6.435145726927408e-07
-43.97193660716423	5.370892819187949e-07
-43.9449349882323	4.4716580085786365e-07
-43.917933369300364	3.7138455939608235e-07
-43.89093175036842	3.0768864982849e-07
-43.86393013143649	2.5429083869733137e-07
-43.83692851250455	2.0964322127456422e-07
-43.809926893572616	1.7240946415776312e-07
-43.78292527464068	1.4143955201161443e-07
-43.75592365570874	1.1574693140246052e-07
-43.72892203677681	9.448792732260161e-08
-43.70192041784487	7.694329574962845e-08
-43.674918798912934	6.250176779468344e-08
-43.647917179981	5.064543703650448e-08
-43.62091556104906	4.09368409175323e-08
-43.593913942117126	3.30075890301051e-08
-43.566912323185186	2.6548395225566628e-08
-43.53991070425325	2.1300376264489022e-08
-43.51290908532132	1.704748677001923e-08
-43.485907466389385	1.3609968178224683e-08
-43.458905847457444	1.0838697878449847e-08
-43.43190422852551	8.610333531630779e-09
-43.40490260959357	6.82315641904116e-09
-43.37790099066164	5.39352642450776e-09
-43.3508993717297	4.252869744375528e-09
-43.32389775279776	3.3451285406369743e-09
-43.29689613386583	2.6246094227494867e-09
-43.26989451493389	2.05417480800603e-09
-43.242892896001955	1.6037278360460189e-09
-43.21589127707002	1.2489475856131853e-09
-43.18888965813808	9.702368612765262e-10
-43.16188803920615	7.518497964569732e-10
-43.134886420274206	5.811709776948236e-10
-43.10788480134227	4.4812176111920213e-10
-43.08088318241034	3.4467295751249477e-10
-43.0538815634784	2.6444614195830256e-10
-43.026879944546465	2.023885339067075e-10
-42.999878325614524	1.5450872989773232e-10
-42.97287670668259	1.1766258976715604e-10
-42.94587508775066	8.938031217143314e-11
-42.918873468818724	6.772721911634047e-11
-42.89187184988678	5.11920320756783e-11
-42.86487023095485	3.8597492087197174e-11
-42.83786861202291	2.9029078283571198e-11
-42.810866993090976	2.177833655187816e-11
-42.78386537415904	1.629796288860027e-11
-42.7568637552271	1.2166312687593238e-11
-42.72986213629517	9.059443646348346e-12
-42.70286051736323	6.729160165996935e-12
-42.675858898431294	4.9858231722274365e-12
-42.64885727949936	3.6849316484893855e-12
-42.62185566056742	2.7166798067869054e-12
-42.594854041635486	1.9978543567474683e-12
-42.567852422703545	1.4655662369001883e-12
-42.54085080377161	1.0724158922812952e-12
-42.51384918483968	7.827752875578425e-13
-42.486847565907745	5.699371447897589e-13
-42.459845946975804	4.1393555178097197e-13
-42.43284432804387	2.998847125819167e-13
-42.40584270911193	2.1671635340028486e-13
-42.378841090179996	1.5622291233077874e-13
-42.35183947124806	1.1233456175398999e-13
-42.32483785231612	8.057449950007696e-14
-42.29783623338419	5.764973711983239e-14
-42.27083461445225	4.114456549957504e-14
-42.243832995520314	2.929159408621107e-14
-42.21683137658838	2.0801222404628447e-14
-42.18982975765644	1.4734994543217455e-14
-42.16282813872451	1.0411812133290142e-14
-42.135826519792566	7.338678155866804e-15
-42.10882490086063	5.159700454115325e-15
-42.0818232819287	3.6186470273315205e-15
-42.054821662996765	2.531529546941529e-15
-42.027820044064825	1.7665859942227297e-15
-42.00081842513289	1.229706678944724e-15
-41.97381680620095	8.538532011731819e-16
-41.94681518726902	5.913979102757236e-16
-41.919813568337084	4.085932826693572e-16
-41.89281194940514	2.815901699146143e-16
-41.86581033047321	1.9357914053206286e-16
-41.83880871154127	1.3274384582000256e-16
-41.811807092609335	9.079981786697917e-17
-41.7848054736774	6.195413183759688e-17
-41.75780385474546	4.2166763191903694e-17
-41.73080223581353	2.8627598729593787e-17
-41.70380061688159	1.9387161175297235e-17
-41.67679899794965	1.309658728771374e-17
-41.64979737901772	8.825039599427419e-18
-41.62279576008578	5.931844578278942e-18
-41.595794141153846	3.977199940547518e-18
-41.568792522221905	2.6599876888407468e-18
-41.54179090328997	1.774583146708447e-18
-41.51478928435804	1.18093932700319e-18
-41.487787665426104	7.839228231568701e-19
-41.460786046494164	5.190790567084894e-19
-41.43378442756223	3.428531664102672e-19
-41.40678280863029	2.2589013679111295e-19
-41.379781189698356	1.4845704239245462e-19
-41.35277957076642	9.732373307188856e-20
-41.32577795183448	6.36430699108258e-20
-41.29877633290255	4.1514314996542283e-20
-41.27177471397061	2.7012141470513965e-20
-41.244773095038674	1.7532123746278008e-20
-41.21777147610674	1.1350745894707888e-20
-41.1907698571748	7.33041611363205e-21
-41.16376823824287	4.722230693784707e-21
-41.136766619310926	3.0344508703809766e-21
-41.10976500037899	1.9450347322376124e-21
-41.08276338144706	1.2436236350349302e-21
-41.055761762515125	7.931676352077999e-22
-41.028760143583185	5.046096718209947e-22
-41.00175852465125	3.202293576674839e-22
-40.97475690571931	2.027135643284987e-22
-40.94775528678738	1.2800397204064108e-22
-40.92075366785544	8.06288644414558e-23
-40.8937520489235	5.066447767032372e-23
-40.86675042999157	3.176238448403347e-23
-40.83974881105963	1.9872403853665808e-23
-40.812747192127695	1.2418114151080264e-23
-40.78574557319576	7.766160952543254e-24
-40.75874395426382	4.88586027381443e-24
-40.73174233533189	3.1318863377343256e-24
-40.70474071639995	2.1066059865348272e-24
-40.67773909746801	1.574200280150343e-24
-40.65073747853608	1.4089672697437728e-24
-40.623735859604146	1.5670417697082152e-24
-40.596734240672205	2.0754898854094633e-24
-40.56973262174027	3.036236882126189e-24
-40.54273100280833	4.645233188638823e-24
-40.5157293838764	7.230208344898127e-24
-40.488727764944464	1.131384471015616e-23
-40.46172614601252	1.7713837218623204e-23
-40.43472452708059	2.7697887303230224e-23
-40.40772290814865	4.32213101824561e-23
-40.380721289216716	6.72891958650549e-23
-40.35371967028478	1.04506256542984e-22
-40.32671805135284	1.6190898227379959e-22
-40.29971643242091	2.5022143851501575e-22
-40.27271481348897	3.857451708517592e-22
-40.245713194557034	5.93195728061142e-22
-40.2187115756251	9.099485333148428e-22
-40.19170995669316	1.3923773492706241e-21
-40.164708337761226	2.1252913818227832e-21
-40.137706718829286	3.2359482554713624e-21
-40.11070509989735	4.914805933086844e-21
-40.08370348096542	7.446172090681159e-21
-40.056701862033485	1.1253350132962045e-20
-40.029700243101544	1.6964960138320955e-20
-40.00269862416961	2.5512104882264936e-20
-39.97569700523767	3.827034407516303e-20
-39.94869538630574	5.726658220819918e-20
-39.9216937673738	8.547973822701741e-20
-39.89469214844186	1.27276530620417e-19
-39.86769052950993	1.8904139256187718e-19
-39.84068891057799	2.80084538081475e-19
-39.813687291646055	4.139474639796465e-19
-39.78668567271412	6.102747559616288e-19
-39.75968405378218	8.974905828004479e-19
-39.73268243485025	1.3166154359292243e-18
-39.705680815918306	1.926694109437239e-18
-39.67867919698637	2.8124941285276263e-18
-39.65167757805444	4.095394615926771e-18
-39.624675959122506	5.9487458456704346e-18
-39.597674340190565	8.619475941927755e-18
-39.57067272125863	1.2458402603344531e-17
-39.54367110232669	1.796264070849708e-17
-39.51666948339476	2.583477021935345e-17
-39.489667864462824	3.706516205194135e-17
-39.46266624553088	5.304621133394625e-17
-39.43566462659895	7.573040876189199e-17
-39.40866300766701	1.0784847113451951e-16
-39.381661388735075	1.532095205691325e-16
-39.35465976980314	2.1711303385786585e-16
-39.3276581508712	3.069126153836673e-16
-39.30065653193927	4.3278541066211e-16
-39.27365491300733	6.08779255848077e-16
-39.246653294075394	8.542338566701673e-16
-39.21965167514346	1.1957042252550526e-15
-39.19265005621153	1.6695566163386022e-15
-39.165648437279586	2.325462301167028e-15
-39.13864681834765	3.231086542964015e-15
-39.11164519941571	4.478363992875608e-15
-39.08464358048378	6.191873632975992e-15
-39.057641961551845	8.539984226387327e-15
-39.030640342619904	1.1749644916718545e-14
-39.00363872368797	1.6125957608530182e-14
-38.97663710475603	2.2078003639105976e-14
-38.949635485824096	3.015282643061183e-14
-38.92263386689216	4.1080018376426744e-14
-38.89563224796022	5.5830053930244896e-14
-38.86863062902829	7.569038836267086e-14
-38.84162901009635	1.0236444782008885e-13
-38.814627391164414	1.3810002594722545e-13
-38.78762577223248	1.858553419795055e-13
-38.76062415330054	2.495131853838995e-13
-38.73362253436861	3.3415626976954103e-13
-38.706620915436666	4.4642026008117054e-13
-38.67961929650473	5.949450605963082e-13
-38.6526176775728	7.90950021429634e-13
-38.625616058640865	1.048964932287312e-12
-38.598614439708925	1.3877562522001185e-12
-38.57161282077699	1.8314972393310374e-12
-38.54461120184505	2.4112418051816964e-12
-38.51760958291312	3.166775379931167e-12
-38.490607963981184	4.1489322502659635e-12
-38.46360634504924	5.4224881852678414e-12
-38.43660472611731	7.069760228831896e-12
-38.40960310718537	9.19507290318914e-12
-38.382601488253435	1.1930282400076812e-11
-38.3555998693215	1.5441588366341184e-11
-38.32859825038956	1.993790742088033e-11
-38.30159663145763	2.5681134438390907e-11
-38.27459501252569	3.299867783215033e-11
-38.24759339359375	4.2298724545162364e-11
-38.22059177466182	5.408877023804828e-11
-38.193590155729886	6.899804128528355e-11
-38.166588536797946	8.780453869880905e-11
-38.13958691786601	1.114675509958123e-10
-38.11258529893407	1.4116661425132431e-10
-38.08558368000214	1.7834804394413265e-10
-38.058582061070204	2.2478032536434605e-10
-38.031580442138264	2.8261982771336137e-10
-38.00457882320633	3.5448850169676976e-10
-37.97757720427439	4.435654311000234e-10
-37.950575585342456	5.536943347745727e-10
-37.92357396641052	6.895093552985585e-10
-37.89657234747858	8.565817222645483e-10
-37.86957072854665	1.0615901388460819e-09
-37.84256910961471	1.3125180062402866e-09
-37.815567490682774	1.618880866977497e-09
-37.78856587175084	1.9919877089980876e-09
-37.76156425281891	2.4452400206246663e-09
-37.734562633886966	2.9944727135962696e-09
-37.70756101495503	3.6583412272469265e-09
-37.68055939602309	4.458759280350199e-09
-37.65355777709116	5.421391835284211e-09
-37.626556158159225	6.576207867799267e-09
-37.599554539227285	7.958097479205363e-09
-37.57255292029535	9.607557729544374e-09
-37.54555130136341	1.1571451292553735e-08
-37.51854968243148	1.3903841617564167e-08
-37.49154806349954	1.6666907711253976e-08
-37.4645464445676	1.9931940904741133e-08
-37.43754482563567	2.3780425030990697e-08
-37.41054320670373	2.8305200287254394e-08
-37.383541587771795	3.36117096825159e-08
-37.35653996883986	3.981932535888208e-08
-37.32953834990792	4.706275021996849e-08
-37.30253673097599	5.5493488194870825e-08
-37.27553511204405	6.528137411466373e-08
-37.24853349311211	7.661615158719717e-08
-37.22153187418018	8.970908444052748e-08
-37.194530255248246	1.0479458428815646e-07
-37.167528636316305	1.2213183358261724e-07
-37.14052701738437	1.420063802085775e-07
-37.11352539845243	1.6473167627395066e-07
-37.0865237795205	1.906505303480769e-07
-37.059522160588564	2.201364390418314e-07
-37.03252054165662	2.535947606053647e-07
-37.00551892272469	2.9146369022610823e-07
-36.97851730379275	3.342149940401876e-07
-36.951515684860816	3.82354456628896e-07
-36.92451406592888	4.364219950693535e-07
-36.89751244699694	4.969913915552719e-07
-36.87051082806501	5.646695963143473e-07
-36.84350920913307	6.400955531317831e-07
-36.816507590201134	7.239385013479436e-07
-36.7895059712692	8.168957108285833e-07
-36.76250435233727	9.19689610185791e-07
-36.735502733405326	1.033064273524462e-06
-36.708501114473385	1.1577812372425404e-06
-36.68149949554145	1.2946146259447834e-06
-36.65449787660952	1.4443455753282171e-06
-36.627496257677585	1.6077559499240804e-06
-36.600494638745644	1.7856213647633009e-06
-36.57349301981371	1.978703532260221e-06
-36.54649140088177	2.187741968741712e-06
-36.51948978194984	2.4134451089004686e-06
-36.4924881630179	2.6564808908147913e-06
-36.46548654408597	2.9174668887934663e-06
-36.43848492515403	3.1969600859053753e-06
-36.41148330622209	3.4954463923256107e-06
-36.384481687290155	3.8133300292546075e-06
-36.35748006835822	4.150922910799756e-06
-36.33047844942629	4.508434167506949e-06
-36.30347683049435	4.885959964848819e-06
-36.276475211562406	5.283473777578241e-06
-36.24947359263047	5.700817286131733e-06
-36.22247197369854	6.137692063925358e-06
-36.195470354766606	6.5936522241825665e-06
-36.168468735834665	7.068098191669903e-06
-36.141467116902724	7.5602717582426475e-06
-36.11446549797079	8.0692525713455e-06
-36.08746387903886	8.59395619155299e-06
-36.060462260106924	9.13313383893786e-06
-36.03346064117498	9.685373928662756e-06
-36.00645902224305	1.0249105473910516e-05
-35.97945740331111	1.082260340940614e-05
-35.952455784379175	1.1403995861688624e-05
-35.92545416544724	1.1991273363423202e-05
-35.89845254651531	1.2582299978867773e-05
-35.87145092758337	1.3174826276700164e-05
-35.84444930865143	1.3766504055335843e-05
-35.817447689719494	1.4354902695250765e-05
-35.79044607078756	1.4937526983285046e-05
-35.76344445185563	1.5511836226072865e-05
-35.736442832923686	1.6075264444230312e-05
-35.709441213991745	1.662524141630367e-05
-35.68243959505981	1.715921432227506e-05
-35.65543797612788	1.7674669721095754e-05
-35.628436357195945	1.816915558566961e-05
-35.601434738264004	1.864030311224604e-05
-35.57443311933207	1.9085848019509108e-05
-35.54743150040013	1.9503651055889108e-05
-35.520429881468196	1.989171744176543e-05
-35.49342826253626	2.0248214986194056e-05
-35.46642664360433	2.0571490635348162e-05
-35.43942502467239	2.086008523172201e-05
-35.41242340574045	2.111274628889524e-05
-35.385421786808514	2.132843861581166e-05
-35.35842016787658	2.1506352656523687e-05
-35.33141854894465	2.1645910445575322e-05
-35.30441693001271	2.1746769114973178e-05
-35.277415311080766	2.1808821925329743e-05
-35.25041369214883	2.1832196830550214e-05
-35.2234120732169	2.181725262166589e-05
-35.196410454284965	2.1764572730412755e-05
-35.169408835353025	2.1674956806264104e-05
-35.14240721642109	2.154941021125519e-05
-35.11540559748915	2.1389131604552595e-05
-35.08840397855722	2.1195498812865615e-05
-35.06140235962528	2.0970053203092018e-05
-35.03440074069335	2.071448278975945e-05
-35.00739912176141	2.043060432166757e-05
-34.98039750282947	2.0120344599568428e-05
-34.953395883897535	1.97857212797369e-05
-34.9263942649656	1.942882341697715e-05
-34.89939264603367	1.9051791995159502e-05
-34.87239102710173	1.865680068404129e-05
-34.84538940816979	1.824603704822701e-05
-34.81838778923785	1.782168441804763e-05
-34.79138617030592	1.7385904613328375e-05
-34.764384551373986	1.694082168993604e-05
-34.737382932442046	1.6488506856147248e-05
-34.710381313510105	1.6030964681771206e-05
-34.68337969457817	1.557012069809606e-05
-34.65637807564624	1.51078104616122e-05
-34.629376456714304	1.464577012957025e-05
-34.602374837782364	1.4185628571201173e-05
-34.57537321885043	1.3728901015274592e-05
-34.54837159991849	1.3276984212950198e-05
-34.521369980986556	1.2831153074911531e-05
-34.49436836205462	1.2392558723797774e-05
-34.46736674312269	1.1962227887192198e-05
-34.44036512419075	1.1541063543003113e-05
-34.41336350525881	1.1129846718089478e-05
-34.386361886326874	1.0729239332454966e-05
-34.35936026739494	1.0339787975248031e-05
-34.33235864846301	9.961928495084964e-06
-34.305357029531066	9.595991285742922e-06
-34.278355410599126	9.242207148903263e-06