-46.6175804 0.0210483
-46.5175819 0
-46.4175797 0
-46.3175812 0
-46.2175789 0
-46.1175804 0
-46.0175819 0
-45.9175797 0
-45.8175812 0
-45.7175789 0
-45.6175804 0.0188867
-45.5175819 0
-45.4175797 0
-45.3175812 0
-45.2175789 0
-45.1175804 0.020008
-45.0175819 0
-44.9175797 0
-44.8175812 0
-44.7175789 0
-44.6175804 0
-44.5175819 0
-44.4175797 0
-44.3175812 0
-44.2175789 0
-44.1175804 0
-44.0175819 0
-43.9175797 0
-43.8175812 0
-43.7175789 0
-43.6175804 0
-43.5175819 0
-43.4175797 0
-43.3175812 0
-43.2175789 0
-43.1175804 0
-43.0175819 0
-42.9175797 0
-42.8175812 0
-42.7175789 0
-42.6175804 0
-42.5175819 0
-42.4175797 0
-42.3175812 0
-42.2175789 0
-42.1175804 0
-42.0175819 0
-41.9175797 0
-41.8175812 0
-41.7175789 0
-41.6175804 0
-41.5175819 0
-41.4175797 0
-41.3175812 0
-41.2175789 0
-41.1175804 0
-41.0175819 0
-40.9175797 0
-40.8175812 0
-40.7175789 0
-40.6175804 0
-40.5175819 0
-40.4175797 0
-40.3175812 0
-40.2175789 0
-40.1175804 0
-40.0175819 0
-39.9175797 0
-39.8175812 0
-39.7175789 0
-39.6175804 0
-39.5175819 0
-39.4175797 0
-39.3175812 0
-39.2175789 0
-39.1175804 0
-39.0175819 0
-38.9175797 0
-38.8175812 0
-38.7175789 0
-38.6175804 0
-38.5175819 0
-38.4175797 0
-38.3175812 0
-38.2175789 0
-38.1175804 0
-38.0175819 0
-37.9175797 0
-37.8175812 0
-37.7175789 0
-37.6175804 0
-37.5175819 0
-37.4175797 0
-37.3175812 0
-37.2175789 0
-37.1175804 0
-37.0175819 0
-36.9175797 0
-36.8175812 0
-36.7175789 0
-36.6175804 0
-36.5175819 0
-36.4175797 0
-36.3175812 0
-36.2175789 0
-36.1175804 0
-36.0175819 0
-35.9175797 0
-35.8175812 0
-35.7175789 0
-35.6175804 0
-35.5175819 0
-35.4175797 0
-35.3175812 0
-35.2175789 0
-35.1175804 0
-35.0175819 0
-34.9175797 0
-34.8175812 0.00142797
-34.7175789 0
-34.6175804 0.00191698
-34.5175819 0
-34.4175797 0.00073418
-34.3175812 0.00048279
-34.2175789 0
-34.1175804 0.00030851
-34.0175819 0.00031479
-33.9175797 0
-33.8175812 0.00021087
-33.7175789 9.829e-05
-33.6175804 2.15e-05
-33.5175819 8.032e-05
-33.4175797 6.141e-05
-33.3175812 0
-33.2175789 4.879e-05
-33.1175804 1.119e-05
-33.0175819 0
-32.9175797 4.501e-05
-32.8175812 0
-32.7175789 0
-32.6175804 5.471e-05
-32.5175819 0
-32.4175797 0
-32.3175812 0
-32.2175789 0
-32.1175804 0
-32.0175819 0
-31.9175797 0
-31.8175812 0
-31.7175789 0
-31.6175804 0
-31.5175819 0
-31.4175797 0
-31.3175812 0
-31.2175789 0
-31.1175804 0
-31.0175819 0
-30.9175797 0
-30.8175812 0
-30.7175789 0
-30.6175804 0
-30.5175819 0
-30.4175797 0
-30.3175774 0
-30.2175789 0
-30.1175804 0
-30.0175819 0
-29.9175797 0
-29.8175774 0
-29.7175789 0
-29.6175804 0
-29.5175819 0
-29.4175797 0
-29.3175774 0
-29.2175789 0
-29.1175804 0
-29.0175819 0
-28.9175797 0
-28.8175774 0
-28.7175789 0
-28.6175804 0
-28.5175819 0
-28.4175797 0
-28.3175774 0
-28.2175789 0
-28.1175804 0
-28.0175819 0
-27.9175797 0
-27.8175774 0
-27.7175808 0
-27.6175804 0
-27.5175800 0
-27.4175797 0
-27.3175793 0
-27.2175808 0
-27.1175804 0
-27.0175800 0
-26.9175797 0
-26.8175793 0
-26.7175808 0
-26.6175804 0
-26.5175800 0
-26.4175797 0
-26.3175793 0
-26.2175808 0
-26.1175804 0
-26.0175800 0
-25.9175797 0
-25.8175793 0
-25.7175808 0
-25.6175804 0
-25.5175800 0
-25.4175797 0
-25.3175793 0
-25.2175808 0
-25.1175804 0
-25.0175800 0
-24.9175797 0
-24.8175793 0
-24.7175808 0
-24.6175804 0
-24.5175800 0
-24.4175797 0
-24.3175793 0
-24.2175808 0
-24.1175804 0
-24.0175800 0
-23.9175797 0.824271
-23.8175793 0
-23.7175808 0
-23.6175804 0.851466
-23.5175800 2.52077
-23.4175797 0
-23.3175793 3.31728
-23.2175808 4.09386
-23.1175804 3.30078
-23.0175800 2.42293
-22.9175797 4.83164
-22.8175793 1.617
-22.7175808 4.83859
-22.6175804 4.04472
-22.5175800 3.23019
-22.4175797 2.37102
-22.3175793 3.15197
-22.2175808 3.14486
-22.1175804 1.58727
-22.0175800 2.32887
-21.9175797 2.40104
-21.8175793 2.38496
-21.7175808 1.54762
-21.6175804 2.3717
-21.5175800 0.789454
-21.4175797 0
-21.3175793 0.792502
-21.2175808 0.776158
-21.1175804 2.34583
-21.0175800 0
-20.9175797 1.54094
-20.8175793 0
-20.7175808 0
-20.6175804 0
-20.5175800 0.761742
-20.4175797 0.771186
-20.3175793 0
-20.2175808 0.76524
-20.1175804 0
-20.0175800 0
-19.9175797 0
-19.8175793 0
-19.7175808 0
-19.6175804 0
-19.5175800 0
-19.4175797 0
-19.3175793 0
-19.2175808 0
-19.1175804 0
-19.0175800 0
-18.9175797 0
-18.8175793 0
-18.7175808 0
-18.6175804 0
-18.5175800 0
-18.4175797 0
-18.3175793 0
-18.2175808 0
-18.1175804 0
-18.0175800 0
-17.9175797 0
-17.8175793 0
-17.7175808 0
-17.6175804 0
-17.5175800 0
-17.4175797 0
-17.3175793 0
-17.2175808 0
-17.1175804 0
-17.0175800 0
-16.9175797 0
-16.8175793 0
-16.7175808 0
-16.6175804 0
-16.5175800 0
-16.4175797 0
-16.3175793 0
-16.2175808 0
-16.1175804 0
-16.0175800 0
-15.9175797 0
-15.8175793 0
-15.7175808 0
-15.6175804 0
-15.5175800 0
-15.4175797 0
-15.3175793 0
-15.2175808 0
-15.1175804 0
-15.0175800 0
-14.9175797 0
-14.8175793 0
-14.7175808 0
-14.6175804 0
-14.5175781 0
-14.4175797 0
-14.3175812 0
-14.2175789 0
-14.1175804 0
-14.0175781 0
-13.9175797 0
-13.8175812 0
-13.7175789 0
-13.6175804 0
-13.5175781 0
-13.4175797 0
-13.3175812 0
-13.2175789 0
-13.1175804 0
-13.0175781 0.00012768
-12.9175797 0
-12.8175812 0
-12.7175789 0.00046597
-12.6175804 0
-12.5175781 0
-12.4175797 0.00016785
-12.3175812 0.00010666
-12.2175789 0.00033964
-12.1175804 0.00013426
-12.0175781 0.00123176
-11.9175797 0.950316
-11.8175802 0.00112934
-11.7175779 0.0157896
-11.6175795 1.88353
-11.5175772 0.950278
-11.4175787 2.89201
-11.3175802 2.80376
-11.2175779 3.23017
-11.1175795 3.29538
-11.0175772 2.17988
-10.9175787 2.51935
-10.8175802 6.67163
-10.7175779 2.87504
-10.6175795 2.93711
-10.5175772 1.82253
-10.4175787 5.47783
-10.3175802 2.04333
-10.2175779 5.65069
-10.1175795 2.84831
-10.0175772 2.83048
-9.91757870 2.82456
-9.81758022 1.89361
-9.71757793 2.82557
-9.61757946 1.86419
-9.51757717 0.929286
-9.41757870 0.930155
-9.31758022 0.936545
-9.21757793 0.925683
-9.11757946 0.915172
-9.01757717 0.915021
-8.91757870 0.908624
-8.81758022 1.84098
-8.71757793 0.894082
-8.61757946 2.35897
-8.51757717 2.26672
-8.41757870 3.62078
-8.31758022 1.78911
-8.21757793 0.893718
-8.11757946 1.79772
-8.01757717 1.79448
-7.91757870 1.80771
-7.81758022 1.80401
-7.71757793 3.60239
-7.61757946 1.87631
-7.51757717 1.80888
-7.41757870 3.61527
-7.31758022 1.85404
-7.21757793 2.74085
-7.11757946 2.70616
-7.01757717 3.60604
-6.91757870 2.876
-6.81758022 3.65117
-6.71757793 3.53385
-6.61757946 3.60213
-6.51757717 3.76038
-6.41757870 2.72329
-6.31758022 2.80593
-6.21757793 2.81831
-6.11757946 1.62436
-6.01757717 1.01753
-5.91757870 3.52546
-5.81758022 3.52475
-5.71757793 2.61613
-5.61757946 0.605843
-5.51757717 4.91095
-5.41757870 2.55752
-5.31758022 5.24546
-5.21757793 4.56132
-5.11757946 5.40099
-5.01757717 3.65553
-4.91757870 6.006
-4.81758022 5.71398
-4.71757793 4.50298
-4.61757946 2.74879
-4.51757717 5.43433
-4.41757870 3.68887
-4.31758022 0.943391
-4.21757793 2.43661
-4.11757946 2.142
-4.01757717 1.67065
-3.91757870 0.814568
-3.81758022 1.14026
-3.71757793 1.78477
-3.61757946 1.59547
-3.51757717 0.94846
-3.41757870 1.28221
-3.31758022 1.05646
-3.21757793 0.804638
-3.11757946 0.654884
-3.01757717 0.562966
-2.91757870 0.852762
-2.81758022 0.868672
-2.71757793 0.049884
-2.61757946 0.0585193
-2.51757717 0.0424637
-2.41757870 0.0177507
-2.31758022 0.0260917
-2.21757793 0.0194253
-2.11757946 0.0282511
-2.01757717 0.0500326
-1.91757870 0.0331502
-1.81758022 0.0354859
-1.71757793 0.0411793
-1.61757946 0.0351061
-1.51757717 0.0251855
-1.41757870 0.0319446
-1.31758022 0.0245968
-1.21757793 0.0421093
-1.11757946 0.0302018
-1.01757717 0.0299962
-0.917578697 0.0109296
-0.817580223 0.0674534
-0.717577934 0.0563876
-0.617579460 0.0192294
-0.517577171 0.0190894
-0.417578697 0.0496141
-0.317580223 0.0233722
-0.217577934 0.0823186
-0.117579460 0.0292413
-1.75771713E-02 0.00486785
8.24213028E-02 0.0107793
0.182419538 0.00575619
0.282421827 0.043366
0.382420301 0.0192406
0.482422590 0.00902725
0.582421064 0.0229457
0.682419538 0.0842949
0.782421827 0.00640263
0.882420301 0
0.982422590 0.0560638
1.08242106 0.00165803
1.18241954 0.00717337
1.28242183 0.0424194
1.38242030 0.0738364
1.48242259 0.0486283
1.58242106 0
1.68241954 0
1.78242183 0.00255563
1.88242030 0.224658
1.98242259 0.0237902
2.08242106 0.206273
2.18241954 0
2.28242183 0.220221
2.38242030 0.00972106
2.48242259 0.601534
2.58242106 0.0138417
2.68241954 0.526307
2.78242183 0
2.88242030 0.0228781
2.98242259 0.064158
3.08242106 0
3.18241954 0.497205
3.28242183 0.562156
3.38242030 0.144612
3.48242259 0.669763
3.58242106 0.521338
3.68241954 0
3.78242183 0.335151
3.88242030 0.995895
3.98242259 0.709604
4.08242130 0.500796
4.18241978 1.06178
4.28242207 0.520748
4.38242054 0.595687
4.48242283 0.508862
4.58242130 0.559014
4.68241978 0.446387
4.78242207 1.09852
4.88242054 0.915811
4.98242283 0.662464
5.08242130 0.455492
5.18241978 0.89516
5.28242207 1.50461
5.38242054 0.65807
5.48242283 1.4558
5.58242130 0
5.68241978 1.04575
5.78242207 0.68194
5.88242054 0.440495
5.98242283 0.807528
6.08242130 1.37187
6.18241978 1.02848
6.28242207 0.973883
6.38242054 0.750189
6.48242283 1.20668
6.58242130 0.782992
6.68241978 1.45724
6.78242207 0.797331
6.88242054 0.963957
6.98242283 1.32227
7.08242130 1.562
7.18241978 1.30375
7.28242207 0.949173
7.38242054 1.15135
7.48242283 1.23499
7.58242130 0.711314
7.68241978 1.51837
7.78242207 1.85745
7.88242054 1.04983
7.98242283 1.06563
8.08242130 2.21777
8.18241978 1.28248
8.28242207 1.35753
8.38242054 1.79017
8.48242283 2.42893
8.58242130 1.35814
8.68241978 2.24739
8.78242207 1.80546
8.88242054 1.75163
8.98242283 1.13992
9.08242130 1.43092
9.18241978 1.75464
9.28242207 2.02303
9.38242054 1.8438
9.48242283 1.67319
9.58242130 2.27874
9.68241978 1.14638
9.78242207 1.76192
9.88242054 1.75645
9.98242283 1.97196
10.0824213 1.24282
10.1824198 1.70446
10.2824221 1.31116
10.3824205 2.23243
10.4824228 1.21603
10.5824213 1.65205
10.6824198 1.29291
10.7824221 1.38773
10.8824205 1.58117
10.9824228 1.93742
11.0824213 1.54391
11.1824198 1.78178
11.2824221 1.39759
11.3824205 1.68066
11.4824228 1.23508
11.5824213 1.42854
11.6824198 0.895926
11.7824221 1.49911
11.8824205 1.47217
11.9824228 1.42941
12.0824213 1.13594
12.1824198 1.07756
12.2824221 1.17069
12.3824205 1.13658
12.4824228 0.943165
12.5824213 0.845014
12.6824198 1.11999
12.7824221 1.03366
12.8824205 0.796984
12.9824228 0.851302
13.0824213 1.18627
13.1824198 0.836759
13.2824221 0.854555
13.3824205 0.796253
13.4824228 0.603738
13.5824213 0.737904
13.6824198 0.851004
13.7824221 0.766862
13.8824205 1.23253
13.9824228 0.499209
14.0824213 0.543368
14.1824198 0.91484
14.2824221 0.440683
14.3824205 0.963129
14.4824228 0.7739
14.5824213 0.910594
14.6824198 0.968159
14.7824221 0.94366
14.8824205 0.808784
14.9824228 0.485956
15.0824213 0.885918
15.1824198 0.505799
15.2824221 0.688855
15.3824205 1.14477
15.4824228 0.880182
15.5824213 0.606794
15.6824198 0.698231
15.7824221 0.882103
15.8824205 0.634302
15.9824228 0.912328
16.0824203 0.840702
16.1824188 0.578774
16.2824211 0.738534
16.3824196 0.652975
16.4824219 0.693591
16.5824203 0.817918
16.6824188 0.629548
16.7824211 0.934561
16.8824196 0.786065
16.9824219 0.6007
17.0824203 0.749879
17.1824188 0.822634
17.2824211 0.733259
17.3824196 0.904478
17.4824181 0.410033
17.5824242 0.752742
17.6824226 0.711675
17.7824211 0.911919
17.8824196 0.517286
17.9824181 0.687581
18.0824242 0.753625
18.1824226 0.656575
18.2824211 0.788963
18.3824196 0.890902
18.4824181 0.487085
18.5824242 0.807128
18.6824226 0.533001
18.7824211 0.989387
18.8824196 0.65006
18.9824181 0.828699
19.0824242 0.836362
19.1824226 0.479771
19.2824211 1.3359
19.3824196 0.661449
19.4824181 0.582366
19.5824242 0.897545
19.6824226 0.908533
19.7824211 0.534411
19.8824196 1.21167
19.9824181 0.899443
20.0824242 0.598114
20.1824226 0.562945
20.2824211 0.71412
20.3824196 0.822628
20.4824181 0.543808
20.5824242 0.850595
20.6824226 0.9396
20.7824211 0.53542
20.8824196 1.05135
20.9824181 0.527008
21.0824242 1.18324
21.1824226 0.673817
21.2824211 0.412463
21.3824196 1.07857
21.4824181 0.967533
21.5824242 0.651276
21.6824226 0.850569
21.7824211 0.778572
21.8824196 0.776155
21.9824181 0.559007
22.0824242 0.903085
22.1824226 0.784765
22.2824211 0.611562
22.3824196 1.00542
22.4824181 0.74876
22.5824242 1.17551
22.6824226 0.86867
22.7824211 0.42774
22.8824196 0.736492
22.9824181 0.554313
23.0824242 1.26203
23.1824226 0.643842
23.2824211 0.759105
23.3824196 0.843818
23.4824181 0.854638
23.5824242 0.505341
23.6824226 1.2676
23.7824211 1.22511
23.8824196 0.740215
23.9824181 1.23383
24.0824242 0.839909
24.1824226 0.558055
24.2824211 0.719657
24.3824196 0.751447
24.4824181 0.553972
24.5824242 0.798232
24.6824226 1.09638
24.7824211 0.528525
24.8824196 0.812582
24.9824181 1.00053
25.0824242 0.985997
25.1824226 0.632072
25.2824211 0.741946
25.3824196 1.10985
25.4824181 0.790718
25.5824242 0.470852
25.6824226 0.847113
25.7824211 0.731948
25.8824196 0.943035
25.9824181 0.574682
26.0824242 1.03375
26.1824226 0.506407
26.2824211 0.66549
26.3824196 1.01233
26.4824181 0.877119
26.5824242 1.0354
26.6824226 0.937684
26.7824211 0.71716
26.8824196 0.833732
26.9824181 0.900823
27.0824242 0.598037
27.1824226 0.461763
27.2824211 1.29608
27.3824196 0.910043
27.4824181 1.09598
27.5824242 0.602933
27.6824226 0.835265
27.7824211 1.37334
27.8824196 0.89252
27.9824181 0.91189
28.0824242 0.754165
28.1824226 0.707505
28.2824211 0.741047
28.3824196 0.656891
28.4824181 1.17297
28.5824242 0.510956
28.6824226 1.10627
28.7824211 1.00694
28.8824196 0.678251
28.9824181 0.938304
29.0824242 0.615079
29.1824226 1.03377
29.2824211 0.88108
29.3824196 0.863968
29.4824181 1.03761
29.5824242 0.596421
29.6824226 0.841816
29.7824211 0.585172
29.8824196 0.923764
29.9824181 0.715602
30.0824242 0.899384
30.1824226 1.12775
30.2824211 0.670009
30.3824196 0.74613
30.4824181 1.08691
30.5824242 1.45033
30.6824226 0.868543
30.7824211 1.16565
30.8824196 0.82694
30.9824181 0.885572
31.0824242 0.904828
31.1824226 1.13029
31.2824211 0.640943
31.3824196 0.702368
31.4824181 0.852555
31.5824242 1.20472
31.6824226 1.10295
31.7824211 0.607442
31.8824196 1.11748
31.9824181 0.847659
32.0824242 0.621022
32.1824226 1.34846
32.2824211 0.202297
32.3824196 1.06537
32.4824181 1.06124
32.5824242 0.909856
32.6824226 0.642673
32.7824211 0.744675
32.8824196 1.46448
32.9824181 0.730015
33.0824242 1.07381
33.1824226 0.672764
33.2824211 0.929778
33.3824196 0.735307
33.4824181 0.522452
33.5824242 0.673751
33.6824226 0.778329
33.7824211 0.786427
33.8824196 1.45263
33.9824181 0.840074
34.0824242 0.601082
34.1824226 1.0731
34.2824211 0.900783
34.3824196 0.818299
34.4824181 1.14476
34.5824242 1.0651
34.6824226 0.518343
34.7824211 0.581652
34.8824196 0.846472
34.9824181 1.08412
35.0824242 0.878762
35.1824226 0.749344
35.2824211 0.69848
35.3824196 1.0413
35.4824181 1.09635
35.5824242 0.881595
35.6824226 0.745289
35.7824211 0.659776
35.8824196 0.674128
35.9824181 0.667974
36.0824242 0.899624
36.1824226 0.80015
36.2824211 0.778935
36.3824196 0.86859
36.4824181 0.792188
36.5824242 0.76605
36.6824226 0.85592
36.7824211 1.01875
36.8824196 0.536378
36.9824181 0.961643
37.0824242 0.879989
37.1824226 0.495701
37.2824211 1.02273
37.3824196 0.594532
37.4824181 0.734191
37.5824242 0.8917
37.6824226 0.588782
37.7824211 0.992761
37.8824196 0.70796
37.9824181 0.478593
38.0824242 0.732486
38.1824226 0.579206
38.2824211 0.469312
38.3824196 0.893887
38.4824181 0.453112
38.5824242 0.791864
38.6824226 0.70689
38.7824211 0.868397
38.8824196 0.347574
38.9824181 0.390642
39.0824242 0.745022
39.1824226 0.939204
39.2824211 0.432453
39.3824196 0.679132
39.4824181 0.744495
39.5824242 0.600796
39.6824226 0.590156
39.7824211 0.673987
39.8824196 0.312472
39.9824181 0.576396
40.0824242 0.73944
40.1824226 0.589545
40.2824211 0.818704
40.3824196 0.608532
40.4824181 0.728187
40.5824242 0.753839
40.6824226 0.581409
40.7824211 0.0995606
40.8824196 0.362659
40.9824181 0.935768
41.0824242 0.627539
41.1824226 0.444219
41.2824211 0.61551
41.3824196 0.394712
41.4824181 0.416554
41.5824242 0.449581
41.6824226 0.490277
41.7824211 0.657527
41.8824196 0.238233
41.9824181 0.914299
42.0824242 0.440885
42.1824226 0
42.2824211 0.647002
42.3824196 0.514086
42.4824181 0.390447
42.5824242 0.418515
42.6824226 0.748886
42.7824211 0.465595
42.8824196 0.362525
42.9824181 0.55387
43.0824242 0.510849
43.1824226 0.536195
43.2824211 0.492045
43.3824196 0.380452
43.4824181 0.617691
43.5824242 0.328837
43.6824226 0.488029
43.7824211 0.477932
43.8824196 0.443275
43.9824181 0
44.0824242 0.746639
44.1824226 0.342775
44.2824211 0.449255
44.3824196 0.0824373
44.4824181 0.79815
44.5824242 0.171559
44.6824226 0.505251
44.7824211 0.474614
44.8824196 0.431349
44.9824181 0.394185
45.0824242 0.421645
45.1824226 0.594172
45.2824211 0.40732
45.3824196 0.495846
45.4824181 0.142231
45.5824242 0.371151
45.6824226 0.240953
45.7824211 0.553417
45.8824196 0.273844
45.9824181 0.276702
46.0824242 0.479961
46.1824226 0.146575
46.2824211 0.292
46.3824196 0.426692
46.4824181 0.574539
46.5824242 0.300286
46.6824226 0.310281
46.7824211 0.407014
46.8824196 0.376464
46.9824181 0.365758
47.0824242 0.236344
47.1824226 0.428551
47.2824211 0.251786
47.3824196 0.704008
47.4824181 0.171204
47.5824242 0.319852
47.6824226 0.283381
47.7824211 0.329298
47.8824196 0.394884
47.9824181 0.518896
48.0824242 0.351868
48.1824226 0.568553
48.2824211 0.16342
48.3824196 0.409306
48.4824181 0.423256
48.5824242 0.379075
48.6824226 0.140998
48.7824211 0.226427
48.8824196 0.544801
48.9824181 0.309269
49.0824242 0.254387
49.1824226 0.20492
49.2824211 0.120939
49.3824196 0.510541
49.4824181 0.110425
49.5824242 0.313125
49.6824226 0.534469
49.7824211 0.153633
49.8824196 0.34756
49.9824181 0.345016
50.0824242 0.340648
50.1824226 0.384858
50.2824211 0.461613
50.3824196 0.212513
50.4824181 0.313168
50.5824242 0.476108
50.6824226 0.231498
50.7824211 0.236248
50.8824196 0.376611
50.9824181 0.356453
51.0824242 0
51.1824226 0.495869
51.2824211 0.235412
51.3824196 0.36366
51.4824181 0.231084
51.5824242 0.355333
51.6824226 0.294654
51.7824211 0.393756
51.8824196 0.353953
51.9824181 0.481826
52.0824242 0.341113
52.1824226 0.131438
52.2824211 0.331678
52.3824196 0.173851
52.4824181 0.367889
52.5824242 0.353403
52.6824226 0.329562
52.7824211 0.33244
52.8824196 0.248661
52.9824181 0.248508
53.0824242 0.274349
53.1824226 0.286903
53.2824211 0.24784
53.3824196 0.190645
53.4824181 0.1984
53.5824242 0.301398
53.6824226 0.245157
53.7824211 0.277492
53.8824196 0.437301
53.9824181 0.283222
54.0824242 0.229055
54.1824226 0.364289
54.2824211 0.245933
54.3824196 0.185179
54.4824181 0.187092
54.5824242 0.30534
54.6824226 0.360157
54.7824211 0.502155
54.8824196 0.16164
54.9824181 0.43544
55.0824242 0.133
55.1824226 0.572863
55.2824211 0.254967
55.3824196 0.411236
55.4824181 0.202226
55.5824242 0.373614
55.6824226 0.300709
55.7824211 0.430972
55.8824196 0.329547
55.9824181 0.282915
56.0824242 0.385276
56.1824226 0.222015
56.2824211 0.357239
56.3824196 0.253872
56.4824181 0.678466
56.5824242 0.209516
56.6824226 0.474387
56.7824211 0.344948
56.8824196 0.290521
56.9824181 0.13941
57.0824242 0.25721
57.1824226 0.458918
57.2824211 0.346407
57.3824196 0.364153
57.4824181 0.315741
57.5824242 0.532776
57.6824226 0.256069
57.7824211 0.50991
57.8824196 0.22663
57.9824181 0.243387
58.0824242 0.375773
58.1824226 0.286295
58.2824211 0.186233
58.3824196 0.495972
58.4824181 0.245882
58.5824242 0.353594
58.6824226 0.22561
58.7824211 0.520569
58.8824196 0.412819
58.9824181 0.244204
59.0824242 0.39668
59.1824226 0.447102
59.2824211 0.138688
59.3824196 0.284468
59.4824181 0.403218
59.5824242 0.231708
59.6824226 0.544726
59.7824211 0.162176
59.8824196 0.655575
59.9824181 0.118344
60.0824242 0.45326
60.1824226 0.323651
60.2824211 0.359387
60.3824196 0.428119
60.4824181 0.270185
60.5824242 0.288891
60.6824226 0.28849
60.7824211 0.515381
60.8824196 0.246333
60.9824181 0.665533
61.0824242 0.111063
61.1824226 0.546799
61.2824211 0.237066
61.3824196 0.414046
61.4824181 0.330749
61.5824242 0.346848
61.6824226 0.197394
61.7824211 0.258858
61.8824196 0.364858
61.9824181 0.422714
62.0824242 0.446182
62.1824226 0.371423
62.2824211 0.392631
62.3824196 0.149309
62.4824181 0.464403
62.5824242 0.437406
62.6824226 0.601125
62.7824211 0.264458
62.8824196 0.248459
62.9824181 0.285825
63.0824242 0.319735
63.1824226 0.392481
63.2824211 0.489962
63.3824196 0.267063
63.4824181 0.383632
63.5824242 0.456647
63.6824226 0.284734
63.7824211 0.437758
63.8824196 0.461447
63.9824181 0.159388
64.0824280 0.603712
64.1824188 0.466678
64.2824249 0.370451
64.3824158 0.425181
64.4824219 0.318229
64.5824280 0.325656
64.6824188 0.506278
64.7824249 0.157736
64.8824158 0.289231
64.9824219 0.48689
65.0824280 0.333111
65.1824188 0.350925
65.2824249 0.353842
65.3824158 0.333783
65.4824219 0.520042
65.5824280 0.359669
65.6824188 0.368158
65.7824249 0.552717
65.8824158 0.304055
65.9824219 0.343226
66.0824280 0.333387
66.1824188 0.312758
66.2824249 0.416386
66.3824158 0.208222
66.4824219 0.36411
66.5824280 0.303125
66.6824188 0.290777
66.7824249 0.505352
66.8824158 0.183849
66.9824219 0.399029
67.0824280 0.561503
67.1824188 0.183384
67.2824249 0.190162
67.3824158 0.765724
67.4824219 0.180457
67.5824280 0.407041
67.6824188 0.385236
67.7824249 0
67.8824158 0.363573
67.9824219 0.584026
68.0824280 0.208691
68.1824265 0.380603
68.2824249 0.362525
68.3824234 0.207392
68.4824219 0.398477
68.5824280 0.217608
68.6824265 0.449989
68.7824249 0.454191
68.8824234 0.614968
68.9824219 0.237855
69.0824280 0.439073
69.1824265 0.392186
69.2824249 0.209112
69.3824234 0.216017
69.4824219 0.619463
69.5824280 0.214589
69.6824265 0.566567
69.7824249 0.207505
69.8824234 0.422074
69.9824219 0.160962
70.0824280 0.914719
70.1824265 0.1621
70.2824249 0.443187
70.3824234 0.50433
70.4824219 0.471584
70.5824280 0.468874
70.6824265 0.445347
70.7824249 0.258158
70.8824234 0.97282
70.9824219 0
71.0824280 0.720663
71.1824265 0.246092
71.2824249 0.708059
71.3824234 0.217465
71.4824219 0.235385
71.5824280 0.284497
71.6824265 0.208706
71.7824249 0.308293
71.8824234 0.341897
71.9824219 0.26821
72.0824280 0.509114
72.1824265 0.666125
72.2824249 0.454729
72.3824234 0.231404
72.4824219 0.260382
72.5824280 0.470663
72.6824265 0.336982
72.7824249 0.259194
72.8824234 0.235569
72.9824219 0.45891
73.0824280 0.176072
73.1824265 0.418511
73.2824249 0.400653
73.3824234 0.202691
73.4824219 0.182076
73.5824280 0.169754
73.6824265 0.467622
73.7824249 0.571846
73.8824234 0.21321
73.9824219 0.284379
74.0824280 0
74.1824265 0.556157
74.2824249 0.472101
74.3824234 0.248169
74.4824219 0.221965
74.5824280 0.234872
74.6824265 0.439399
74.7824249 0.253068
74.8824234 0.40551
74.9824219 0.163545
75.0824280 0.102875
75.1824265 0.311015
75.2824249 0.529238
75.3824234 0.210076
75.4824219 0.700364
75.5824280 0.276048
75.6824265 0
75.7824249 0.578171
75.8824234 0.207558
75.9824219 0.27508
76.0824280 0.2592
76.1824265 0.27488
76.2824249 0.502947
76.3824234 0.260882
76.4824219 0.118446
76.5824280 0.319809
76.6824265 0.500632
76.7824249 0.285807
76.8824234 0.0843425
76.9824219 0.265438
77.0824280 0
77.1824265 0.566851
77.2824249 0.242333
77.3824234 0.435184
77.4824219 0.209739
77.5824280 0
77.6824265 0.366791
77.7824249 0
77.8824234 0.660176
77.9824219 0.263921
78.0824280 0.300071
78.1824265 0.250976
78.2824249 0.341816
78.3824234 0.351352
78.4824219 0
78.5824280 0.745599
78.6824265 0
78.7824249 0
78.8824234 0.645785
78.9824219 0.368151
79.0824280 0
79.1824265 0.795461
79.2824249 0.198362
79.3824234 0
79.4824219 0.705745
79.5824280 0.363842
79.6824265 0
79.7824249 0.38729
79.8824234 0.24335
79.9824219 0.108368
80.0824280 0.181117
80.1824265 0
80.2824249 0.450364
80.3824234 0.260348
80.4824219 0.264643
80.5824280 0
80.6824265 0.570395
80.7824249 0
80.8824234 0.369548
80.9824219 0.339797
81.0824280 0
81.1824265 0.718726
81.2824249 0
81.3824234 0.318119
81.4824295 0
81.5824203 0
81.6824265 0
81.7824326 0.491227
81.8824234 0.342686
81.9824295 0.121239
82.0824203 0.299616
82.1824265 0.735132
82.2824326 0.318058
82.3824234 0
82.4824295 0.604712
82.5824203 0.400028
82.6824265 0.404238
82.7824326 0.36529
82.8824234 0.312739
82.9824295 0.241281
83.0824203 0.303924
83.1824265 0
83.2824326 0
83.3824234 0.261896
83.4824295 0.252632
83.5824203 0
83.6824265 0.46188
83.7824326 0.345351
83.8824234 0.18905
83.9824295 0.34521
84.0824203 0
84.1824265 0.857476
84.2824326 0.235283
84.3824234 0.38818
84.4824295 0
84.5824203 0.435942
84.6824265 0
84.7824326 0
84.8824234 0
84.9824295 0.277529
85.0824203 0
85.1824265 0.194408
85.2824326 0.154325
85.3824234 0.0289897
85.4824295 0.296225
85.5824203 0
85.6824265 0.501007
85.7824326 0.385601
85.8824234 0
85.9824295 0.545357
86.0824203 0
86.1824265 0.410877
86.2824326 0.317586
86.3824234 0
86.4824295 0
86.5824203 0.735317
86.6824265 0
86.7824326 0.471861
86.8824234 0.450546
86.9824295 0
87.0824203 0.788611
87.1824265 0
87.2824326 0.267421
87.3824234 0.187849
87.4824295 0.324919
87.5824203 0.242394
87.6824265 0
87.7824326 0.305969
87.8824234 0.42247
87.9824295 0.325763
88.0824203 0.474071
88.1824265 0.421357
88.2824326 0
88.3824234 0.232465
88.4824295 0.484149
88.5824203 0
88.6824265 0.290859
88.7824326 0.457834
88.8824234 0
88.9824295 0.355761
89.0824203 0
89.1824265 0
89.2824326 0.483787
89.3824234 0.362204
89.4824295 0.528738
89.5824203 0.351554
89.6824265 0.176988
89.7824326 0
89.8824234 0.442172
89.9824295 0.244256
90.0824203 0.326286
90.1824265 0
90.2824326 0.367399
90.3824234 0
90.4824295 0
90.5824203 0.448735
90.6824265 0
90.7824326 0
90.8824234 0.205777
90.9824295 0.245985
91.0824203 0.444404
91.1824265 0
91.2824326 0
91.3824234 0
91.4824295 0
91.5824203 0.413673
91.6824265 0.19685
91.7824326 0.302547
91.8824234 0.0670032
91.9824295 0
92.0824203 0.132884
92.1824265 0
92.2824326 0.42461
92.3824234 0
92.4824295 0.499592
92.5824203 0.0872739
92.6824265 0.478845
92.7824326 0
92.8824234 0.440272
92.9824295 0.939247
93.0824203 0.495488
93.1824265 0
93.2824326 0
93.3824234 0.528888
93.4824295 0.170367
93.5824203 0.205404
93.6824265 0.17349
93.7824326 0.331227
93.8824234 0
93.9824295 0.224949
94.0824203 0
94.1824265 0
94.2824326 0.0440856
94.3824234 0.491741
94.4824295 0
94.5824203 0
94.6824265 0
94.7824326 0
94.8824234 0
94.9824295 0.361404
95.0824203 0
95.1824265 0
95.2824326 0.47463
95.3824234 0
95.4824295 0
95.5824203 0
95.6824265 0.4845
95.7824326 0
95.8824234 0
95.9824295 0.267234
96.0824203 0.501324
96.1824265 0.39373
96.2824326 0
96.3824234 0.550454
96.4824295 0
96.5824203 0
96.6824265 0.25528
96.7824326 0
96.8824234 0.961631
96.9824295 0
97.0824203 0
97.1824265 0
97.2824326 0
97.3824234 0.48632
97.4824295 0.0105732
97.5824203 0.28063
97.6824265 0
97.7824326 0
97.8824234 0
97.9824295 0.623322
98.0824203 0
98.1824265 0.345978
98.2824326 0.517502
98.3824234 0
98.4824295 0
98.5824203 0.234918
98.6824265 0.290026
98.7824326 0.487538
98.8824234 0.50612
98.9824295 0.56151
99.0824203 0
99.1824265 0.0266595
99.2824326 0
99.3824234 0.0231589
99.4824295 0.121831
99.5824203 0.490759
99.6824265 0
99.7824326 0.0578075
99.8824234 0
99.9824295 0
100.082420 0
100.182426 0
100.282433 0
100.382423 0
100.482430 0.199614
100.582420 0
100.682426 0
100.782433 0
100.882423 0
100.982430 0.201247
101.082420 0
101.182426 0.107122
101.282433 0.444312
101.382423 0
101.482430 0.201081
101.582420 0
101.682426 0
101.782433 0
101.882423 0
101.982430 0.313587
102.082420 0.422949
102.182426 0
102.282433 0.511567
102.382423 0
102.482430 0
102.582420 0
102.682426 0.155731
102.782433 0
102.882423 0.575171
102.982430 0
103.082420 0.19757
103.182426 0
103.282433 0
103.382423 0.599158
103.482430 0
103.582420 0
103.682426 0
103.782433 0.282546
103.882423 0
103.982430 0.0219587
104.082420 0.00917275
104.182426 0.00331802
104.282433 0.0620808
104.382423 0.544249
104.482430 0
104.582420 0
104.682426 0.316741
104.782433 0
104.882423 0.290912
104.982430 0
105.082420 0
105.182426 0.373667
105.282433 0.355136
105.382423 0.464308
105.482430 0.407731
105.582420 0.530256
105.682426 0
105.782433 0
105.882423 0
105.982430 0
106.082420 0.386929
106.182426 0.182787
106.282433 0
106.382423 0
106.482430 0
106.582420 0.131684
106.682426 0
106.782433 0.696292
106.882423 0
106.982430 0
107.082420 0
107.182426 0.104916
107.282433 0
107.382423 0.63631
107.482430 0
107.582420 0
107.682426 0
107.782433 0
107.882423 0.0982836
107.982430 0
108.082420 0.127505
108.182426 0
108.282433 0
108.382423 0
108.482430 0.68079
108.582420 0
108.682426 0
108.782433 0.106784
108.882423 0.0443418
108.982430 0
109.082420 0
109.182426 0
109.282433 0
109.382423 0
109.482430 0
109.582420 0.162555
109.682426 0
109.782433 0
109.882423 0.147394
109.982430 0
110.082420 0
110.182426 0
110.282433 0
110.382423 0
110.482430 0.0548105
110.582420 0.150012
110.682426 0
110.782433 0
110.882423 0
110.982430 0.0596185
111.082420 0
111.182426 0
111.282433 0.580345
111.382423 0.0464837
111.482430 0
111.582420 0
111.682426 0.107352
111.782433 0.103354
111.882423 0
111.982430 0.589929
112.082420 0
112.182426 0
112.282433 0.524313
112.382423 0.0749939
112.482430 0
112.582420 0.0981356
112.682426 0
112.782433 0
112.882423 0.062923
112.982430 0
113.082420 0
113.182426 0
113.282433 0.112001
113.382423 0
113.482430 0
113.582420 0
113.682426 0.54524
113.782433 0
113.882423 0
113.982430 0.139429
114.082420 0
114.182426 0
114.282433 0.100301
114.382423 0
114.482430 0
114.582420 0.105842
114.682426 0.0396848
114.782433 0
114.882423 0
114.982430 0
115.082420 0.0465362
115.182426 0.0775358
115.282433 0
115.382423 0
115.482430 0.083396
115.582420 0.0485004
115.682426 0.054258
115.782433 0
115.882423 0
115.982430 0.0576203
116.082420 0
116.182426 0.033043
116.282433 0
116.382423 0
116.482430 0.038693
116.582420 0
116.682426 0.033684
116.782433 0
116.882423 0
116.982430 0
117.082420 0.0832243
117.182426 0
117.282433 0.0466036
117.382423 0
117.482430 0
117.582420 0
117.682426 0.0338718
117.782433 0
117.882423 0.0489839
117.982430 0.0492815
118.082420 0
118.182426 0
118.282433 0.0548703
118.382423 0
118.482430 0
118.582420 0.0394026
118.682426 0.0364986
118.782433 0
118.882423 0
118.982430 0.0413202
119.082420 0
119.182426 0.0338911
119.282433 0.0212676
119.382423 0.0471883
119.482430 0.0853015
119.582420 0
119.682426 0
119.782433 0.0170299
119.882423 0