# energy total s py pz px
-47.378467616839316	9.698002	9.6973304	3.01e-05	0.00025639999999999994	0.0003851
-46.901531062998274	0.0	0.0	0.0	0.0	0.0
-46.42459450915723	9.705099	9.7046055	0.00016769999999999998	0.00019229999999999999	0.0001335
-45.94765795531619	9.663701499999998	9.662426499999999	0.00034369999999999995	0.00039449999999999994	0.0005367999999999999
-45.470721401475146	0.0	0.0	0.0	0.0	0.0
-44.993784847634096	0.0	0.0	0.0	0.0	0.0
-44.51684829379305	0.0	0.0	0.0	0.0	0.0
-44.03991173995201	0.0	0.0	0.0	0.0	0.0
-43.56297518611097	0.0	0.0	0.0	0.0	0.0
-43.086038632269926	0.0	0.0	0.0	0.0	0.0
-42.60910207842888	0.0	0.0	0.0	0.0	0.0
-42.13216552458784	0.0	0.0	0.0	0.0	0.0
-41.6552289707468	0.0	0.0	0.0	0.0	0.0
-41.178292416905755	0.0	0.0	0.0	0.0	0.0
-40.701355863064705	0.0	0.0	0.0	0.0	0.0
-40.22441930922366	0.0	0.0	0.0	0.0	0.0
-39.74748275538262	0.0	0.0	0.0	0.0	0.0
-39.27054620154158	0.0	0.0	0.0	0.0	0.0
-38.793609647700535	0.0	0.0	0.0	0.0	0.0
-38.31667309385949	0.0	0.0	0.0	0.0	0.0
-37.83973654001845	0.0	0.0	0.0	0.0	0.0
-37.3627999861774	0.0	0.0	0.0	0.0	0.0
-36.88586343233636	0.0	0.0	0.0	0.0	0.0
-36.408926878495315	0.0	0.0	0.0	0.0	0.0
-35.93199032465427	0.0	0.0	0.0	0.0	0.0
-35.45505377081323	0.0	0.0	0.0	0.0	0.0
-34.97811721697219	0.0	0.0	0.0	0.0	0.0
-34.501180663131144	0.0	0.0	0.0	0.0	0.0
-34.0242441092901	0.0	0.0	0.0	0.0	0.0
-33.54730755544906	0.0	0.0	0.0	0.0	0.0
-33.07037100160802	0.0	0.0	0.0	0.0	0.0
-32.59343444776697	0.0	0.0	0.0	0.0	0.0
-32.116497893925924	0.0	0.0	0.0	0.0	0.0
-31.63956134008488	0.0	0.0	0.0	0.0	0.0
-31.16262478624384	0.0	0.0	0.0	0.0	0.0
-30.685688232402796	0.0	0.0	0.0	0.0	0.0
-30.208751678561754	0.0	0.0	0.0	0.0	0.0
-29.731815124720704	0.0	0.0	0.0	0.0	0.0
-29.25487857087966	0.0	0.0	0.0	0.0	0.0
-28.77794201703862	0.0	0.0	0.0	0.0	0.0
-28.301005463197576	0.0	0.0	0.0	0.0	0.0
-27.824068909356534	0.0	0.0	0.0	0.0	0.0
-27.34713235551549	0.0	0.0	0.0	0.0	0.0
-26.87019580167445	0.0	0.0	0.0	0.0	0.0
-26.393259247833406	0.0	0.0	0.0	0.0	0.0
-25.916322693992356	0.0	0.0	0.0	0.0	0.0
-25.439386140151313	0.0	0.0	0.0	0.0	0.0
-24.96244958631027	2.3999999999999994e-05	2.3199999999999998e-05	0.0	5.999999999999999e-07	2e-07
-24.48551303246923	0.017221	0.016339299999999998	0.0002241	0.0003945	0.0002631
-24.008576478628186	0.3605325999999999	0.150129	0.05440869999999999	0.03924919999999999	0.1167457
-23.531639924787143	0.06724139999999999	0.043643799999999996	0.0039749	0.0041603	0.0154624
-23.0547033709461	0.6171435	0.26848440000000007	0.0903807	0.0987774	0.15950099999999998
-22.577766817105058	0.9063978	0.31432389999999993	0.2770639	0.2311568	0.08385319999999999
-22.100830263264015	0.4838718000000001	0.13062819999999997	0.1548164	0.050194	0.14823319999999998
-21.623893709422966	0.1828878	0.047024399999999994	0.04490539999999999	0.014110999999999999	0.076847
-21.146957155581923	0.005029	0.0041712	9.2e-05	5.7799999999999995e-05	0.000708
-20.67002060174088	0.0	0.0	0.0	0.0	0.0
-20.193084047899838	0.0	0.0	0.0	0.0	0.0
-19.716147494058795	0.0	0.0	0.0	0.0	0.0
-19.239210940217752	0.0	0.0	0.0	0.0	0.0
-18.76227438637671	0.0	0.0	0.0	0.0	0.0
-18.285337832535667	0.0	0.0	0.0	0.0	0.0
-17.808401278694618	0.0	0.0	0.0	0.0	0.0
-17.331464724853575	0.0	0.0	0.0	0.0	0.0
-16.854528171012532	0.0	0.0	0.0	0.0	0.0
-16.37759161717149	0.0	0.0	0.0	0.0	0.0
-15.900655063330449	0.0	0.0	0.0	0.0	0.0
-15.423718509489403	0.0	0.0	0.0	0.0	0.0
-14.94678195564836	0.0	0.0	0.0	0.0	0.0
-14.469845401807317	0.0	0.0	0.0	0.0	0.0
-13.992908847966275	0.0	0.0	0.0	0.0	0.0
-13.515972294125232	0.0	0.0	0.0	0.0	0.0
-13.03903574028419	1e-07	1e-07	0.0	0.0	0.0
-12.56209918644314	0.0011905999999999998	0.0008936999999999998	3.48e-05	0.00021759999999999998	4.45e-05
-12.085162632602097	0.0022884999999999997	0.0013944999999999997	0.00021710000000000002	0.0005817	9.52e-05
-11.608226078761055	0.0653372	0.0166066	0.0048733	0.038108600000000006	0.005748699999999999
-11.131289524920012	0.0300114	0.006335100000000001	0.0039488	0.007888099999999999	0.011839400000000005
-10.65435297107897	0.1519959	0.0458314	0.029162899999999995	0.0362221	0.0407795
-10.177416417237927	0.1181027	0.029873000000000004	0.030458899999999997	0.024801199999999995	0.032969599999999995
-9.700479863396884	0.13994539999999997	0.0313275	0.022529699999999993	0.04201189999999999	0.0440763
-9.223543309555842	0.0348578	0.012255199999999999	0.009748099999999999	0.0053224	0.007532100000000001
-8.746606755714799	0.32088010000000006	0.13144329999999996	0.10607169999999999	0.0220051	0.06136
-8.26967020187375	0.23706410000000003	0.1033278	0.044067999999999996	0.03791739999999999	0.05175089999999998
-7.792733648032707	0.5481179	0.2552047	0.17697460000000004	0.0665995	0.0493391
-7.315797094191664	0.6430039999999999	0.23429789999999986	0.1766651	0.12303320000000001	0.10900779999999999
-6.8388605403506215	0.4851554	0.11409140000000001	0.0792912	0.13243529999999998	0.1593375
-6.361923986509579	0.284411	0.09404439999999997	0.06170289999999999	0.0394042	0.08925949999999998
-5.884987432668536	0.16446159999999996	0.06922059999999998	0.017404599999999996	0.016102499999999995	0.06173390000000001
-5.408050878827494	0.2685354999999999	0.10420770000000003	0.029051999999999994	0.0451507	0.09012509999999997
-4.931114324986451	0.4974224	0.1558357	0.17009739999999995	0.1221841	0.04930520000000001
-4.454177771145402	0.2983876999999999	0.0696639	0.061816199999999995	0.0756911	0.09121649999999999
-3.9772412173043596	0.0855231	0.0204	0.018925	0.02715119999999999	0.0190469
-3.500304663463317	0.0257339	0.012016299999999997	0.0023608999999999995	0.007932099999999997	0.0034245999999999994
-3.0233681096222744	0.08072990000000002	0.050217200000000004	0.005284599999999999	0.0211538	0.004074300000000001
-2.546431555781232	0.11328279999999999	0.07171759999999998	0.007590299999999998	0.026644899999999996	0.007329999999999999
-2.069495001940189	0.19139899999999996	0.14504209999999998	0.0082376	0.030118000000000002	0.0080013
-1.5925584480991466	0.13108359999999997	0.06269589999999998	0.018485699999999997	0.035789299999999996	0.014112700000000002
-1.115621894258104	0.15472970000000003	0.07049799999999999	0.014173600000000003	0.051779200000000004	0.0182789
-0.6386853404170614	0.07835299999999999	0.038474299999999996	0.006265800000000001	0.0228289	0.010783999999999997
-0.16174878657601166	0.5721399	0.5366422999999999	0.0049321	0.026418900000000002	0.004146599999999999
0.31518776726503095	0.20052869999999995	0.12020259999999999	0.019083700000000002	0.041673999999999996	0.0195684
0.7921243211060736	0.9032573999999999	0.8536794	0.009635999999999999	0.0350394	0.0049026
1.2690608749471162	0.8315314999999999	0.7015654	0.0114065	0.11007079999999998	0.0084888
1.745997428788159	0.2783155	0.2269938	0.0138212	0.0333047	0.0041957999999999995
2.2229339826292014	0.5846051	0.4352127	0.057159600000000005	0.04860710000000001	0.043625699999999996
2.699870536470244	1.3861961	0.9190064	0.15807349999999998	0.22618400000000002	0.08293219999999998
3.1768070903112866	1.1100999999999999	0.6226116999999999	0.1321008	0.2029919	0.1523956
3.6537436441523363	1.0692487	0.40181959999999994	0.30347349999999995	0.13488909999999998	0.2290665
4.130680197993379	1.3837016000000002	0.5688513	0.3011069	0.278142	0.2356014
4.6076167518344215	2.4644052999999997	0.6794573999999999	0.5200547	0.7207817999999999	0.5441113999999999
5.084553305675464	3.0334048	0.48834289999999986	0.6174969	1.2091916999999999	0.7183733
5.561489859516507	3.4445861999999994	0.5503323999999999	0.5697336	1.2727529999999998	1.0517672
6.038426413357549	2.1696069	0.31689670000000003	0.7250299000000001	0.7562492999999999	0.3714309999999999
6.515362967198592	2.6936454	0.485	0.41309929999999995	1.1625271	0.6330189999999999
6.992299521039635	3.1055343	0.7943337	0.5321786	1.0714620999999998	0.7075599
7.469236074880677	2.3263282	0.6923024999999999	0.6241431999999999	0.36366060000000006	0.6462218999999999
7.946172628721727	3.6127211000000004	1.422836	0.6955967000000002	0.8809620999999999	0.6133263
8.423109182562769	4.246650400000001	1.1363549000000002	1.1585953000000002	0.8531390999999999	1.0985610999999997
8.900045736403811	2.9841368000000004	0.8615925	0.8720670999999999	0.40195220000000004	0.848525
9.376982290244854	3.0686709	0.9071621999999999	0.5160925999999999	0.743853	0.9015631000000002
9.853918844085896	2.9821530000000007	0.727734	0.5373595000000001	0.9001060999999997	0.8169533999999998
10.330855397926939	2.7001123999999996	0.6032010000000001	0.8163395000000001	0.5907464999999998	0.6898253999999998
10.807791951767982	2.4467536999999995	0.647836	0.7980596000000001	0.42761059999999995	0.5732475
11.284728505609024	2.0467901999999993	0.3556026999999999	0.5497310999999999	0.4897438999999999	0.6517124999999999
11.761665059450076	2.3694332000000005	0.6236652	0.7417234	0.4489533000000001	0.5550913
12.238601613291118	2.441782199999999	0.5492222999999999	0.8312531000000001	0.3578673	0.7034395000000001
12.715538167132161	1.9758220000000004	0.6512151999999999	0.5390731	0.3076996	0.47783410000000004
13.192474720973204	2.9939903000000005	0.6222544	0.589606	0.5924742999999999	1.1896555999999998
13.669411274814246	2.3765941	0.6603447000000001	0.4630221	0.5779567	0.6752706
14.146347828655289	1.4991062000000002	0.292355	0.37950399999999995	0.40775530000000004	0.4194919
14.623284382496331	2.0829625	0.45451750000000013	0.628486	0.6067011999999999	0.39325779999999994
15.100220936337374	1.7849022999999997	0.3577005	0.5437277	0.357272	0.5262021000000001
15.577157490178417	1.1780264999999994	0.29034350000000003	0.3744100000000001	0.3080738	0.20519919999999997
16.054094044019465	1.1921687999999997	0.30936359999999996	0.4505192	0.20442180000000004	0.22786420000000002
16.531030597860507	1.4276057999999998	0.41669209999999995	0.41060069999999993	0.3085729	0.29174009999999995
17.00796715170155	0.978482	0.32050709999999993	0.25824169999999996	0.25879250000000004	0.1409407
17.484903705542592	1.0467925999999999	0.2879735	0.28099159999999995	0.35482369999999996	0.1230038
17.961840259383635	1.0433587	0.32076289999999996	0.26558849999999995	0.3123149	0.14469239999999997
18.438776813224678	0.9025922999999999	0.22107519999999994	0.24161450000000004	0.2897625999999999	0.15014000000000002
18.91571336706572	0.6694777	0.15305850000000001	0.1730459	0.2270505	0.11632279999999999
19.392649920906763	0.7008519	0.24978839999999997	0.17434869999999997	0.13248079999999998	0.14423399999999997
19.869586474747805	0.7531162000000002	0.20469240000000002	0.12295719999999999	0.265699	0.15976759999999998
20.346523028588848	0.7584363	0.3389579	0.08922619999999999	0.17008849999999998	0.16016369999999996
20.82345958242989	0.5358221	0.1805332	0.11220789999999999	0.11063249999999998	0.13244849999999997
21.300396136270933	0.6012084999999999	0.24751629999999997	0.07946139999999999	0.1541832	0.12004759999999999
21.777332690111976	0.5935314	0.25093879999999996	0.0712997	0.14479569999999997	0.12649719999999998
22.254269243953033	0.658143	0.2765448	0.09293329999999998	0.17771979999999996	0.11094510000000002
22.731205797794075	0.5215527	0.20790759999999997	0.0676587	0.1387613	0.10722509999999999
23.208142351635118	0.6209101	0.24431830000000002	0.05526919999999999	0.1594158	0.1619068
23.68507890547616	0.6008726	0.22841019999999995	0.0556884	0.1584753	0.1582987
24.162015459317203	0.5027794999999999	0.1885705	0.08808409999999998	0.10555099999999999	0.12057390000000001
24.638952013158246	0.43052899999999994	0.16488170000000002	0.0538857	0.12324799999999998	0.08851359999999998
25.11588856699929	0.4483545	0.21631570000000003	0.05658829999999999	0.09851069999999999	0.07693979999999999
25.59282512084033	0.5023304999999999	0.24870509999999998	0.040232500000000004	0.11117049999999999	0.1022224
26.069761674681374	0.5297535999999999	0.16276179999999996	0.06484870000000001	0.18551020000000001	0.11663289999999997
26.546698228522416	0.38458609999999993	0.1544187	0.07717299999999999	0.06324529999999999	0.08974909999999998
27.02363478236346	0.4314818000000001	0.1698026	0.050223699999999996	0.1144633	0.09699219999999997
27.5005713362045	0.4728333999999999	0.18306619999999998	0.08674860000000001	0.10916630000000001	0.09385230000000001
27.977507890045544	0.5123599999999999	0.1417015	0.1121185	0.1292149	0.1293251
28.454444443886587	0.4225011999999999	0.13262780000000002	0.08900969999999997	0.08421880000000001	0.1166449
28.93138099772763	0.45831869999999997	0.1410382	0.06697750000000001	0.13687610000000003	0.1134269
29.408317551568672	0.4121864000000001	0.14451349999999996	0.0973092	0.07394049999999999	0.09642319999999999
29.885254105409714	0.4675554999999999	0.2064924	0.06644219999999999	0.11760969999999998	0.07701119999999999
30.36219065925077	0.24940659999999998	0.089138	0.045423399999999996	0.0655716	0.049273599999999994
30.839127213091814	0.5480216	0.1783424	0.12080049999999998	0.1054678	0.1434109
31.316063766932857	0.5152156999999999	0.1574668	0.11256450000000001	0.1471589	0.09802549999999997
31.7930003207739	0.4513482	0.11818329999999999	0.1447426	0.1185893	0.06983299999999998
32.26993687461494	0.4562789999999999	0.1055688	0.1387773	0.10787699999999999	0.10405590000000002
32.746873428455984	0.6210279999999999	0.1902934	0.1296586	0.1461909	0.1548851
33.22380998229703	0.33169769999999993	0.1135193	0.0630235	0.07032759999999999	0.08482730000000001
33.70074653613807	0.4681985	0.1423498	0.11066589999999998	0.08870990000000002	0.12647289999999997
34.17768308997911	0.5077571	0.10957119999999998	0.1327616	0.1326366	0.13278769999999998
34.654619643820155	0.37517129999999993	0.10014809999999999	0.07243119999999997	0.0772375	0.12535449999999998
35.1315561976612	0.39892089999999997	0.1338107	0.0768388	0.1143183	0.0739531
35.60849275150224	0.4978657	0.1431678	0.0828891	0.15479869999999998	0.11701009999999999
36.08542930534328	0.5010324999999999	0.11502939999999999	0.10089179999999999	0.18347569999999996	0.10163559999999999
36.562365859184325	0.31285029999999997	0.057729800000000005	0.07148809999999998	0.10623749999999998	0.07739489999999999
37.03930241302537	0.39460639999999997	0.0794917	0.09252809999999997	0.1300729	0.09251369999999998
37.51623896686641	0.4692421	0.07606399999999999	0.1807094	0.1250423	0.08742639999999999
37.99317552070745	0.3098265	0.09321879999999998	0.0827969	0.0765435	0.05726729999999999
38.47011207454851	0.3909871999999999	0.09305169999999999	0.0919724	0.10610009999999999	0.09986299999999998
38.94704862838955	0.4179373	0.11118640000000002	0.1104337	0.12065829999999997	0.07565890000000002
39.423985182230595	0.34513599999999994	0.129863	0.0817713	0.0634697	0.07003200000000001
39.90092173607164	0.38858600000000004	0.11501340000000002	0.11828029999999999	0.0676629	0.0876294
40.37785828991268	0.261997	0.08694839999999998	0.06324979999999998	0.0415177	0.0702811
40.85479484375372	0.28123849999999995	0.1031413	0.0621308	0.0448265	0.07113989999999999
41.331731397594766	0.294342	0.0951431	0.08265839999999998	0.050644699999999994	0.06589579999999998
41.80866795143581	0.3524496	0.0835685	0.1347378	0.054836300000000004	0.079307
42.28560450527685	0.47304440000000003	0.1063153	0.1124495	0.04569149999999999	0.20858809999999997
42.76254105911789	0.32911389999999996	0.10581550000000002	0.10098	0.05131999999999999	0.07099839999999999
43.239477612958936	0.26921449999999997	0.0647033	0.102655	0.0347515	0.0671047
43.71641416679998	0.5265690999999999	0.14647669999999996	0.17185139999999996	0.05707420000000001	0.1511668
44.19335072064102	0.4218507999999999	0.183199	0.08121560000000001	0.0598871	0.09754910000000001
44.670287274482064	0.4092035	0.1839266	0.0622343	0.0689516	0.094091
45.147223828323106	0.4264541	0.1905124	0.0953874	0.0521379	0.08841639999999999
45.62416038216415	0.6832630000000001	0.2860993	0.13631829999999998	0.10793159999999999	0.1529138
46.10109693600519	0.37847990000000004	0.1896487	0.0714037	0.05366509999999999	0.06376239999999998
46.57803348984625	0.7246638999999999	0.3428497	0.09405960000000001	0.07834889999999999	0.2094057
47.05497004368729	0.5408041999999998	0.2405982	0.09260109999999998	0.0826644	0.1249405
47.531906597528334	0.5070307999999999	0.27124629999999994	0.08752929999999999	0.08934750000000001	0.058907699999999986
48.008843151369376	0.6347587	0.207653	0.1862775	0.135313	0.10551519999999999
48.48577970521042	0.3438285	0.11646129999999999	0.0592649	0.10370889999999997	0.06439339999999999
48.96271625905146	0.6723755999999999	0.2637834	0.12550159999999996	0.118198	0.16489259999999997
49.439652812892504	0.5210618	0.21478719999999998	0.0724117	0.0901043	0.14375859999999996
49.91658936673355	0.5126825999999999	0.28468189999999993	0.08449679999999998	0.0636431	0.0798608
50.39352592057459	0.48488989999999993	0.21246639999999997	0.0927276	0.1056074	0.0740885
50.87046247441563	0.5479522	0.27620750000000005	0.0716298	0.07361279999999999	0.1265021
51.347399028256675	0.47452950000000005	0.1863926	0.1543648	0.0687693	0.0650028
51.82433558209772	0.4064287	0.20770019999999995	0.06475689999999999	0.039193000000000006	0.0947786
52.30127213593876	0.3008926	0.11445949999999998	0.0656819	0.04415229999999999	0.07659889999999998
52.7782086897798	0.4107315000000001	0.15732729999999995	0.0926575	0.025921100000000002	0.1348256
53.255145243620845	0.30347989999999997	0.1397602	0.056038399999999995	0.019724899999999997	0.0879564
53.73208179746189	0.3561619	0.1300271	0.0586424	0.04219830000000001	0.1252941
54.20901835130293	0.27290519999999996	0.14789420000000003	0.03939619999999999	0.017630599999999996	0.0679842
54.68595490514399	0.43112540000000005	0.18586439999999999	0.12960599999999997	0.0513466	0.06430839999999997
55.16289145898503	0.45011310000000004	0.17686190000000004	0.1282158	0.061960699999999994	0.0830747
55.63982801282607	0.46119279999999996	0.2075271	0.12045389999999999	0.0327761	0.10043569999999997
56.116764566667115	0.5122601	0.1833823	0.193271	0.07409389999999999	0.0615129
56.59370112050816	0.7035066999999998	0.21224009999999996	0.34219929999999993	0.1106744	0.038392899999999994
57.0706376743492	0.4341445	0.1407784	0.1913007	0.0659347	0.036130699999999995
57.54757422819024	0.3806051	0.16070339999999997	0.11546629999999998	0.0483997	0.056035699999999994
58.024510782031285	0.5171786	0.2262936	0.14477389999999998	0.056279199999999995	0.08983190000000002
58.50144733587233	0.3962072	0.20543479999999997	0.0940142	0.029384600000000004	0.06737359999999999
58.97838388971337	0.3051761	0.18444320000000003	0.048179	0.0300046	0.04254929999999999
59.45532044355441	0.2783182	0.15307529999999994	0.054643099999999986	0.0273554	0.0432444
59.932256997395456	0.30249600000000004	0.1449549	0.053347	0.0394232	0.0647709
60.4091935512365	0.3693001999999999	0.1911068	0.06211680000000001	0.051966799999999994	0.0641098
60.88613010507754	0.41477909999999996	0.1770902	0.10927179999999997	0.0262178	0.10219929999999997
61.363066658918584	0.3155521	0.11730199999999999	0.0784977	0.0303855	0.08936689999999999
61.840003212759626	0.42448149999999996	0.22972110000000004	0.0634637	0.03388649999999999	0.09741019999999999
62.31693976660067	0.4233357	0.23152460000000002	0.1135315	0.0382714	0.0400082
62.793876320441726	0.3269396	0.1771208	0.0631643	0.03378799999999999	0.05286650000000001
63.27081287428277	0.3743689	0.21719710000000003	0.063846	0.027862500000000005	0.06546329999999999
63.74774942812381	0.5971017999999999	0.4802583	0.033219399999999996	0.0333832	0.0502409
64.22468598196485	0.3440454	0.22555699999999998	0.0353934	0.029292799999999997	0.053802199999999994
64.7016225358059	0.4149846	0.2913908999999999	0.03981099999999999	0.03916639999999999	0.04461629999999999
65.17855908964694	0.4609576999999999	0.31867989999999996	0.0438424	0.045654099999999996	0.052781299999999996
65.65549564348798	0.18511959999999997	0.12336180000000002	0.027701499999999997	0.0117328	0.0223235
66.13243219732902	0.42456059999999995	0.2772985	0.055243499999999994	0.023426100000000002	0.0685925
66.60936875117007	0.37116299999999997	0.2516241	0.0248857	0.04181639999999999	0.052836799999999996
67.08630530501111	0.18360379999999998	0.1256135	0.021360899999999995	0.0184291	0.018200299999999996
67.56324185885214	0.24482660000000006	0.1971479	0.012268000000000001	0.016539300000000003	0.0188714
68.0401784126932	0.3377712	0.24349479999999998	0.04247649999999999	0.018269499999999998	0.0335304
68.51711496653422	0.23289629999999997	0.15475199999999997	0.026201300000000004	0.0311026	0.0208404
68.99405152037528	0.16446160000000004	0.1188378	0.013159899999999999	0.016949699999999998	0.0155142
69.47098807421631	0.2915133	0.23411829999999997	0.024684900000000003	0.0124836	0.020226499999999998
69.94792462805736	0.29764260000000003	0.218048	0.034357	0.020387900000000004	0.0248497
70.4248611818984	0.1526403	0.09911669999999999	0.0238278	0.0116667	0.0180291
70.90179773573945	0.1916744	0.1470611	0.012217200000000001	0.0101255	0.022270599999999998
71.3787342895805	0.2667137	0.1869839	0.022941599999999993	0.04819559999999999	0.0085926
71.85567084342154	0.2058471	0.1550728	0.012762299999999999	0.025856300000000002	0.0121557
72.33260739726259	0.233253	0.1420449	0.03227819999999999	0.013779999999999999	0.045149899999999986
72.80954395110362	0.1716944	0.09800289999999999	0.015769799999999997	0.0308003	0.027121399999999993
73.28648050494468	0.41131680000000004	0.231073	0.040992499999999994	0.0558404	0.08341089999999998
73.7634170587857	0.21486419999999998	0.14567439999999998	0.0148732	0.021938199999999998	0.0323784
74.24035361262676	0.1415938	0.12467380000000002	0.007168599999999999	0.0068779999999999996	0.0028733999999999995
74.71729016646779	0.1857246	0.15163169999999998	0.0129217	0.0150202	0.006151
75.19422672030885	0.24266700000000002	0.19734649999999998	0.0250308	0.0114094	0.008880299999999999
75.67116327414988	0.3569741	0.22973120000000002	0.0459889	0.0336507	0.04760329999999999
76.14809982799093	0.23541800000000002	0.16419499999999998	0.029326299999999996	0.0177305	0.0241662
76.62503638183196	0.045544	0.03312879999999999	0.006105	0.0024761999999999996	0.003834
77.10197293567302	0.2799344999999999	0.2168985	0.0267036	0.024167800000000003	0.0121646
77.57890948951405	0.0547971	0.049436299999999996	0.0022454	0.0014403999999999997	0.0016749999999999996
78.0558460433551	0.0708537	0.06102250000000001	0.0042453000000000005	0.0022685	0.0033173999999999994
78.53278259719613	0.11752059999999999	0.099369	0.0057913999999999995	0.0100395	0.0023206999999999998
79.00971915103719	0.09969979999999999	0.0840278	0.0068100999999999995	0.0074281	0.0014337999999999998
79.48665570487825	0.1396502	0.10788679999999999	0.013170499999999998	0.0111248	0.007468099999999999
79.96359225871927	0.18476899999999996	0.16912490000000002	0.0033177	0.008728799999999998	0.0035976
80.44052881256033	0.14775639999999998	0.1232072	0.0020691999999999998	0.018927199999999998	0.0035528
80.91746536640136	0.16187279999999998	0.1359515	0.006190899999999999	0.015255799999999998	0.0044746
81.39440192024242	0.13859169999999998	0.08788229999999998	0.005367999999999999	0.03823	0.0071114
81.87133847408344	0.1743128	0.1151948	0.0067949	0.04523939999999999	0.0070837
82.3482750279245	0.06246950000000001	0.05148440000000001	0.0012299000000000001	0.004933299999999999	0.0048219
82.82521158176553	0.1990835	0.1863469	0.0021501	0.0058376	0.0047488999999999995
83.30214813560659	0.0734711	0.0346009	0.011462	0.008047099999999998	0.0193611
83.77908468944764	0.0618655	0.051784699999999996	0.0012263999999999999	0.0050964999999999995	0.0037578999999999998
84.25602124328867	0.23101249999999998	0.20660519999999996	0.005304799999999999	0.014555799999999999	0.004546699999999999
84.73295779712973	0.18030529999999997	0.1478421	0.0161536	0.0087377	0.0075719
85.20989435097076	0.1139526	0.07955279999999999	0.011077499999999999	0.013267999999999999	0.0100543
85.68683090481181	0.06906659999999999	0.0599092	0.0014728	0.0046462	0.0030383999999999997
86.16376745865284	0.10251119999999998	0.07927669999999999	0.008650399999999999	0.013065299999999998	0.0015188
86.6407040124939	0.19815229999999998	0.1677041	0.0076523	0.0185455	0.0042504
87.11764056633493	0.1968935	0.1908394	0.0021668	0.0026385	0.0012487999999999998
87.59457712017598	0.13790749999999996	0.11009609999999999	0.0082455	0.011120400000000003	0.0084455
88.07151367401701	0.1565604	0.14060209999999998	0.0070404000000000005	0.0057795	0.0031384
88.54845022785807	0.10755359999999999	0.0871443	0.005870199999999999	0.0107119	0.0038272000000000002
89.0253867816991	0.10883	0.10095499999999998	0.0005210999999999999	0.006113100000000001	0.0012407999999999998
89.50232333554015	0.1531498	0.13592249999999997	0.002253	0.013047	0.0019273
89.97925988938118	0.1731845	0.1660676	0.0007932	0.0016493999999999999	0.0046743
90.45619644322224	0.06058569999999999	0.057557399999999995	0.0006012	0.0022541999999999996	0.00017289999999999997
90.93313299706327	0.0645588	0.0557907	0.0021829999999999996	0.005789300000000001	0.0007957999999999999
91.41006955090432	0.07681669999999999	0.07273039999999999	0.0022044	0.0015991	0.0002828
91.88700610474538	0.15390979999999999	0.1343735	0.010861899999999999	0.006245499999999999	0.0024289
92.36394265858641	0.0695966	0.0639616	0.0015695999999999998	0.0028558	0.0012096
92.84087921242747	0.0430003	0.035188699999999996	0.0027687999999999996	0.0044061	0.0006366999999999999
93.3178157662685	0.0021372	0.001753	0.0001767	1.08e-05	0.0001967
93.79475232010955	0.013675599999999998	0.0105376	0.0005409999999999999	0.0006339999999999999	0.001963
94.27168887395058	0.142962	0.1376633	0.0036293999999999996	0.0007402999999999999	0.0009289999999999999
94.74862542779164	0.008697799999999999	0.0085882	4.4999999999999996e-05	4.81e-05	1.65e-05
95.22556198163267	0.21922070000000002	0.20416600000000001	0.0020615	0.0027216999999999996	0.010271500000000001
95.70249853547372	0.1010221	0.0776817	0.0025414999999999995	0.016203199999999997	0.0045957
96.17943508931475	0.0163924	0.0130297	0.0002692	0.0016144999999999998	0.0014789999999999998
96.65637164315581	0.0300317	0.024958	0.0031425999999999993	0.0013257	0.0006054
97.13330819699684	0.05133309999999999	0.041759399999999995	0.0044188	0.0014574	0.0036974999999999994
97.6102447508379	0.3421468	0.3166192	0.0090289	0.014322799999999998	0.0021759
98.08718130467892	0.09505029999999999	0.08312979999999999	0.005428	0.006033199999999998	0.0004593
98.56411785851998	0.1572564	0.14911069999999998	0.0024869000000000002	0.0043504	0.0013084000000000001
99.041054412361	0.0171961	0.015765499999999998	0.0001851	0.0009103999999999999	0.0003351
99.51799096620206	0.1009959	0.0974869	0.0006931	0.0011998	0.0016160999999999999
99.99492752004312	0.0631403	0.0595044	0.0006663	0.0015808999999999999	0.0013886999999999999
100.47186407388415	0.05096029999999999	0.0456053	0.0021087999999999997	0.0025958999999999995	0.0006503
100.9488006277252	0.2244908	0.2197326	0.00029709999999999996	0.0034130999999999996	0.0010479999999999999
101.42573718156623	0.0126182	0.012248799999999999	8.94e-05	0.00018989999999999998	9.01e-05
101.90267373540729	0.12955979999999997	0.122206	0.0016917	0.0046695999999999994	0.0009925
102.37961028924832	1.5799999999999998e-05	1.33e-05	2e-07	1.8e-06	5e-07
102.85654684308938	0.032397499999999996	0.0283086	0.0017807999999999997	0.0016339000000000002	0.0006742
103.3334833969304	0.012058799999999998	0.0109436	0.00029239999999999995	0.0005306	0.0002922
103.81041995077146	0.13709659999999999	0.1304719	0.00040909999999999997	0.0041933	0.0020223
104.28735650461249	0.0700954	0.0626394	0.0037937999999999995	0.0028908	0.0007714000000000001
104.76429305845355	0.0649686	0.061892199999999994	0.0005472999999999999	0.0023523999999999997	0.00017669999999999999
105.24122961229457	0.10589799999999999	0.099463	0.0017179	0.0027432	0.0019739
105.71816616613563	0.06672589999999999	0.06241979999999999	0.0004118	0.0017048999999999996	0.0021893999999999998
106.19510271997666	0.1451085	0.13976829999999998	0.0010842	0.0035819999999999997	0.0006739999999999999
106.67203927381772	1.28e-05	1.21e-05	2.9999999999999993e-07	0.0	4e-07
107.14897582765875	0.0813324	0.076055	0.0003692	0.0043796	0.0005286000000000001
107.6259123814998	0.1108856	0.1060787	0.0019866999999999997	0.0013560999999999998	0.0014640999999999999
108.10284893534086	0.05250069999999999	0.04983719999999999	0.00047209999999999993	0.0020497	0.0001417
108.57978548918189	0.014037599999999999	0.0127518	9.75e-05	0.0006543	0.000534
109.05672204302294	0.019284899999999997	0.0152599	0.0003828	0.0029849	0.0006572999999999999
109.53365859686397	0.05723550000000001	0.048973699999999995	0.0014729	0.0055966	0.0011922999999999999
110.01059515070503	0.0063249	0.0055038000000000005	1.7e-05	0.0006800999999999999	0.00012399999999999998
110.48753170454606	0.0175306	0.014524500000000001	0.0007340000000000001	0.0017951999999999998	0.0004769
110.96446825838711	0.0214502	0.017189899999999998	0.0008823999999999999	0.0019601999999999996	0.0014176999999999998
111.44140481222814	0.07120869999999999	0.06286379999999998	0.0012102	0.006303999999999999	0.0008307
111.9183413660692	0.036685199999999994	0.0324606	0.0011065	0.0027868999999999997	0.0003312
112.39527791991023	0.025383099999999995	0.023434699999999996	0.0002265	0.0013966	0.0003253
112.87221447375128	0.06103859999999999	0.051615799999999996	0.0009355999999999999	0.0074110999999999995	0.0010761
113.34915102759231	0.0122186	0.0105925	0.00016799999999999996	0.0011493999999999999	0.00030869999999999997
113.82608758143337	0.0578532	0.049581799999999995	0.0002396	0.0072504	0.0007814
114.3030241352744	0.055805799999999996	0.0489988	0.0003884	0.006015	0.0004036