# energy total s py pz px dxy dyz dz2 dxz dx2
-47.378467616839316	0.18725380000000003	0.062218499999999996	0.0282435	0.009405299999999998	0.0688255	0.0071521	0.0016836	0.0024406	0.0022687	0.0050160000000000005
-46.901531062998274	0.0	0.0	0.0	0.0	0.0	0.0	0.0	0.0	0.0	0.0
-46.42459450915723	0.1667051	0.052217299999999994	0.0492197	0.027199599999999997	0.0225559	0.0027018	0.0035575	0.0028675	0.0020367	0.0043491
-45.94765795531619	0.18358119999999997	0.0564292	0.0404234	0.048722	0.0191847	0.0036101999999999996	0.00048399999999999995	0.009274	0.0021503	0.0033033999999999997
-45.470721401475146	0.0	0.0	0.0	0.0	0.0	0.0	0.0	0.0	0.0	0.0
-44.993784847634096	0.0	0.0	0.0	0.0	0.0	0.0	0.0	0.0	0.0	0.0
-44.51684829379305	0.0	0.0	0.0	0.0	0.0	0.0	0.0	0.0	0.0	0.0
-44.03991173995201	0.0	0.0	0.0	0.0	0.0	0.0	0.0	0.0	0.0	0.0
-43.56297518611097	0.0	0.0	0.0	0.0	0.0	0.0	0.0	0.0	0.0	0.0
-43.086038632269926	0.0	0.0	0.0	0.0	0.0	0.0	0.0	0.0	0.0	0.0
-42.60910207842888	0.0	0.0	0.0	0.0	0.0	0.0	0.0	0.0	0.0	0.0
-42.13216552458784	0.0	0.0	0.0	0.0	0.0	0.0	0.0	0.0	0.0	0.0
-41.6552289707468	0.0	0.0	0.0	0.0	0.0	0.0	0.0	0.0	0.0	0.0
-41.178292416905755	0.0	0.0	0.0	0.0	0.0	0.0	0.0	0.0	0.0	0.0
-40.701355863064705	0.0	0.0	0.0	0.0	0.0	0.0	0.0	0.0	0.0	0.0
-40.22441930922366	0.0	0.0	0.0	0.0	0.0	0.0	0.0	0.0	0.0	0.0
-39.74748275538262	0.0	0.0	0.0	0.0	0.0	0.0	0.0	0.0	0.0	0.0
-39.27054620154158	0.0	0.0	0.0	0.0	0.0	0.0	0.0	0.0	0.0	0.0
-38.793609647700535	0.0	0.0	0.0	0.0	0.0	0.0	0.0	0.0	0.0	0.0
-38.31667309385949	0.0	0.0	0.0	0.0	0.0	0.0	0.0	0.0	0.0	0.0
-37.83973654001845	0.0	0.0	0.0	0.0	0.0	0.0	0.0	0.0	0.0	0.0
-37.3627999861774	0.0	0.0	0.0	0.0	0.0	0.0	0.0	0.0	0.0	0.0
-36.88586343233636	0.0	0.0	0.0	0.0	0.0	0.0	0.0	0.0	0.0	0.0
-36.408926878495315	0.0	0.0	0.0	0.0	0.0	0.0	0.0	0.0	0.0	0.0
-35.93199032465427	0.0025162999999999995	0.0010819	0.0001008	0.0008839999999999999	0.000236	4.2499999999999996e-05	2.21e-05	5.6899999999999994e-05	5.11e-05	4.0999999999999994e-05
-35.45505377081323	0.0074091999999999995	0.0024993	0.0002544	0.0035594999999999997	0.0004457	0.00010159999999999999	8.97e-05	0.00022969999999999997	0.000155	7.429999999999999e-05
-34.97811721697219	0.0019919	0.00027059999999999996	0.0001469	0.0012377999999999998	0.0001126	1.5199999999999998e-05	2.4299999999999998e-05	0.0001144	4.4399999999999995e-05	2.5699999999999998e-05
-34.501180663131144	0.0012347999999999999	0.0001991	0.00020349999999999999	0.0004287	0.00021580000000000001	1.99e-05	4.749999999999999e-05	4.6099999999999996e-05	5.86e-05	1.56e-05
-34.0242441092901	0.0007039	7.97e-05	0.00011059999999999999	0.00032069999999999993	8.69e-05	1.93e-05	2.51e-05	3.35e-05	2.42e-05	3.9e-06
-33.54730755544906	0.0005491999999999999	5.34e-05	6.63e-05	0.0003736	2.11e-05	2.9999999999999997e-06	6.999999999999999e-06	2.19e-05	2.7e-06	2e-07
-33.07037100160802	0.0	0.0	0.0	0.0	0.0	0.0	0.0	0.0	0.0	0.0
-32.59343444776697	0.0	0.0	0.0	0.0	0.0	0.0	0.0	0.0	0.0	0.0
-32.116497893925924	0.0	0.0	0.0	0.0	0.0	0.0	0.0	0.0	0.0	0.0
-31.63956134008488	0.0	0.0	0.0	0.0	0.0	0.0	0.0	0.0	0.0	0.0
-31.16262478624384	0.0	0.0	0.0	0.0	0.0	0.0	0.0	0.0	0.0	0.0
-30.685688232402796	0.0	0.0	0.0	0.0	0.0	0.0	0.0	0.0	0.0	0.0
-30.208751678561754	0.0	0.0	0.0	0.0	0.0	0.0	0.0	0.0	0.0	0.0
-29.731815124720704	0.0	0.0	0.0	0.0	0.0	0.0	0.0	0.0	0.0	0.0
-29.25487857087966	0.0	0.0	0.0	0.0	0.0	0.0	0.0	0.0	0.0	0.0
-28.77794201703862	0.0	0.0	0.0	0.0	0.0	0.0	0.0	0.0	0.0	0.0
-28.301005463197576	0.0	0.0	0.0	0.0	0.0	0.0	0.0	0.0	0.0	0.0
-27.824068909356534	0.0	0.0	0.0	0.0	0.0	0.0	0.0	0.0	0.0	0.0
-27.34713235551549	0.0	0.0	0.0	0.0	0.0	0.0	0.0	0.0	0.0	0.0
-26.87019580167445	0.0	0.0	0.0	0.0	0.0	0.0	0.0	0.0	0.0	0.0
-26.393259247833406	0.0	0.0	0.0	0.0	0.0	0.0	0.0	0.0	0.0	0.0
-25.916322693992356	0.0	0.0	0.0	0.0	0.0	0.0	0.0	0.0	0.0	0.0
-25.439386140151313	0.0	0.0	0.0	0.0	0.0	0.0	0.0	0.0	0.0	0.0
-24.96244958631027	6.0583189	5.7277929	0.0417757	0.2566917	0.016049599999999997	0.0023147	0.0028965	0.0013815999999999998	0.0008142	0.008601999999999999
-24.48551303246923	42.9162509	41.120114	0.4446552	0.49813539999999995	0.7282366000000001	0.0182889	0.021150600000000002	0.0320458	0.0241012	0.029523199999999996
-24.008576478628186	121.47594900000001	115.47343399999997	1.7133803000000003	1.5960025999999998	2.3216181999999996	0.05997550000000001	0.07958979999999999	0.0945251	0.0658604	0.07156309999999999
-23.531639924787143	115.1736806	108.97772709999998	1.8226958000000004	1.6633635999999998	2.3339585999999994	0.0669399	0.0713544	0.0723743	0.0906489	0.07461799999999999
-23.0547033709461	96.28234959999997	91.0023511	1.5322805	1.7799208000000002	1.6307569000000002	0.05472579999999999	0.05547960000000001	0.08405649999999998	0.0688252	0.0739532
-22.577766817105058	54.0103963	51.132165	0.6663718999999999	0.8860471999999999	1.1621514	0.0242337	0.0318749	0.037992099999999994	0.024774499999999994	0.0447856
-22.100830263264015	29.569491800000005	28.1144796	0.4605708	0.3173869999999999	0.5959169	0.0084289	0.012569	0.011092300000000001	0.021837799999999997	0.0272095
-21.623893709422966	23.6651891	22.502211199999998	0.26002269999999994	0.45585559999999997	0.3726899	0.0187858	0.0124905	0.0147655	0.0050329	0.023334999999999998
-21.146957155581923	5.9742628999999985	5.711184	0.07144829999999999	0.09191019999999998	0.07829610000000001	0.0029514	0.0026006999999999996	0.005459599999999999	0.0021257	0.0082869
-20.67002060174088	0.0	0.0	0.0	0.0	0.0	0.0	0.0	0.0	0.0	0.0
-20.193084047899838	0.0	0.0	0.0	0.0	0.0	0.0	0.0	0.0	0.0	0.0
-19.716147494058795	0.0	0.0	0.0	0.0	0.0	0.0	0.0	0.0	0.0	0.0
-19.239210940217752	0.0	0.0	0.0	0.0	0.0	0.0	0.0	0.0	0.0	0.0
-18.76227438637671	0.0	0.0	0.0	0.0	0.0	0.0	0.0	0.0	0.0	0.0
-18.285337832535667	0.0	0.0	0.0	0.0	0.0	0.0	0.0	0.0	0.0	0.0
-17.808401278694618	0.0	0.0	0.0	0.0	0.0	0.0	0.0	0.0	0.0	0.0
-17.331464724853575	0.0	0.0	0.0	0.0	0.0	0.0	0.0	0.0	0.0	0.0
-16.854528171012532	0.0	0.0	0.0	0.0	0.0	0.0	0.0	0.0	0.0	0.0
-16.37759161717149	0.0	0.0	0.0	0.0	0.0	0.0	0.0	0.0	0.0	0.0
-15.900655063330449	0.0	0.0	0.0	0.0	0.0	0.0	0.0	0.0	0.0	0.0
-15.423718509489403	0.0	0.0	0.0	0.0	0.0	0.0	0.0	0.0	0.0	0.0
-14.94678195564836	0.0	0.0	0.0	0.0	0.0	0.0	0.0	0.0	0.0	0.0
-14.469845401807317	0.0	0.0	0.0	0.0	0.0	0.0	0.0	0.0	0.0	0.0
-13.992908847966275	0.0009716999999999999	2.0499999999999997e-05	0.00010139999999999998	0.0003957	0.0004172	1.2000000000000002e-06	1.63e-05	5.199999999999999e-06	9.4e-06	4.800000000000001e-06
-13.515972294125232	0.004866299999999999	5.37e-05	0.00034559999999999994	0.0018154	0.0025413999999999996	7.7e-06	2.0399999999999998e-05	3.309999999999999e-05	1.76e-05	3.14e-05
-13.03903574028419	7.0428714	0.0187216	1.2559330999999998	4.7792055	0.8533875999999999	0.0085417	0.026475699999999994	0.0418594	0.0440746	0.0146722
-12.56209918644314	42.92029449999999	0.1641988	10.2819771	16.495275499999995	15.146337699999998	0.12067679999999999	0.10692339999999997	0.17035920000000002	0.2659768	0.1685692
-12.085162632602097	105.1767409	0.3987549999999999	32.751490399999994	30.046770399999996	39.7979598	0.4897955	0.3959113	0.40687539999999994	0.39412	0.49506309999999987
-11.608226078761055	127.72460989999996	0.499297	44.486610999999996	47.67412529999999	32.2335483	0.6177547999999999	0.4616007	0.4852187999999999	0.6806472999999998	0.5858066999999999
-11.131289524920012	130.3184713	0.6224137	45.691475	43.90758519999999	37.0405008	0.6937968999999999	0.5084895999999999	0.5923923000000001	0.5246727999999999	0.7371450000000002
-10.65435297107897	70.99861250000001	0.3079962	18.824669999999994	15.769668600000001	34.490979299999985	0.2798742999999999	0.19374489999999997	0.4097994999999999	0.3687778999999998	0.3531018000000001
-10.177416417237927	35.215879599999994	0.17932599999999999	11.012644	12.681889799999999	10.576562500000001	0.1335848	0.102709	0.28374419999999995	0.09720259999999999	0.1482167
-9.700479863396884	50.5070555	0.9638513000000001	13.4165352	22.306254999999997	12.845263300000003	0.0919903	0.14446900000000004	0.41841950000000006	0.070689	0.24958289999999997
-9.223543309555842	92.98456520000002	6.740229599999999	29.766784599999994	23.585128500000003	31.978403100000005	0.1172627	0.1279873	0.28740569999999993	0.15528219999999995	0.2260815
-8.746606755714799	98.2194918	9.024743099999998	26.1430757	28.4376169	34.0916603	0.0881317	0.1156387	0.12381369999999998	0.1023853	0.09242639999999998
-8.26967020187375	99.62913179999998	9.215658499999998	28.834297399999997	30.4787392	30.642221099999993	0.0673381	0.0865012	0.12440849999999999	0.0819417	0.0980261
-7.792733648032707	149.9404716	13.416706499999995	39.70823959999999	45.974133699999996	50.2368001	0.0814017	0.1159839	0.12855060000000001	0.12054529999999998	0.1581102
-7.315797094191664	136.08125169999997	10.6161718	42.2583245	36.0953542	46.6333177	0.06610350000000001	0.08146890000000001	0.11348960000000001	0.09725779999999998	0.11976370000000001
-6.8388605403506215	110.45647589999997	6.696635799999999	35.7228182	27.901265500000004	39.815421900000004	0.047815399999999994	0.04716699999999999	0.0744187	0.07511019999999997	0.0758232
-6.361923986509579	164.3527732	2.8429543	51.6655443	64.94906659999998	44.63014129999999	0.0539191	0.044787500000000015	0.05993160000000001	0.044483199999999994	0.061945299999999974
-5.884987432668536	249.9002653	1.7714124999999998	87.90799039999999	98.57155350000001	61.33510089999999	0.0666259	0.0557371	0.08076389999999999	0.05789929999999999	0.053181799999999994
-5.408050878827494	154.7631192	0.6810639999999999	47.646040699999986	47.7547195	58.51108089999999	0.0402282	0.032092	0.03733390000000001	0.030836999999999993	0.029723
-4.931114324986451	63.788631900000006	0.35889419999999994	31.006340699999992	18.272640600000003	14.078564799999999	0.016229	0.012599500000000003	0.012848	0.013115799999999993	0.017399299999999996
-4.454177771145402	65.1954396	0.3767263999999999	27.967145099999996	13.561989600000006	23.207444799999994	0.0198804	0.014278799999999998	0.018720499999999998	0.0086883	0.020565699999999996
-3.9772412173043596	36.24935539999999	0.18032	16.1707171	3.917852499999999	15.940652699999994	0.006179199999999999	0.010381000000000001	0.006213799999999999	0.0042803	0.0127588
-3.500304663463317	2.1795835000000006	0.027946499999999996	0.5798515999999998	0.7415908999999999	0.8241866999999998	0.0004994	0.0010861000000000002	0.0023424	0.0010234999999999997	0.0010563999999999999
-3.0233681096222744	1.2570726999999997	0.052316999999999995	0.2361181	0.6876369000000001	0.2684454	0.0006235	0.0022194	0.005922100000000001	0.0026874000000000004	0.0011029000000000002
-2.546431555781232	1.2774436999999996	0.08617290000000001	0.1980351999999999	0.7329979	0.2403754999999999	0.0010721999999999995	0.004616399999999999	0.008808600000000001	0.0041018	0.0012632000000000001
-2.069495001940189	1.0136684	0.13887270000000002	0.11430900000000001	0.6212467000000002	0.12054779999999997	0.0010998999999999998	0.0038869	0.0092991	0.0034648	0.0009415
-1.5925584480991466	1.3540259	0.1539329	0.18232520000000002	0.7843208999999999	0.19858279999999995	0.0015722999999999998	0.0080375	0.016850799999999996	0.006242099999999999	0.0021614
-1.115621894258104	1.3690892000000003	0.1575087	0.18199270000000006	0.7720965999999999	0.21637330000000002	0.0023249999999999994	0.0101184	0.018635600000000002	0.007809300000000002	0.002229599999999999
-0.6386853404170614	0.6669718999999998	0.0864325	0.09674340000000001	0.3556301999999999	0.1005252	0.0015679000000000008	0.0076992	0.011588699999999997	0.0050679	0.0017169
-0.16174878657601166	0.7764412999999999	0.3943382999999999	0.042041999999999996	0.287584	0.03543969999999999	0.0010164	0.0041263	0.0070886	0.0028281	0.0019778999999999995
0.31518776726503095	1.1336588999999997	0.23685499999999998	0.1521389	0.5637703	0.14377189999999998	0.0015805999999999997	0.0081018	0.018662699999999997	0.0056689	0.0031088
0.7921243211060736	1.3816657999999997	1.0254304999999997	0.0649055	0.1945703	0.0638781	0.0044396999999999995	0.0089331	0.009389400000000001	0.0040728	0.0060464
1.2690608749471162	2.5179655999999997	1.7427858	0.10526769999999998	0.4771583999999999	0.12933669999999997	0.009981100000000001	0.010004099999999998	0.016843999999999998	0.0137472	0.0128406
1.745997428788159	6.9399073	4.1010308	0.5978967999999999	1.2649346	0.7517387999999999	0.034873299999999996	0.023266799999999997	0.07843339999999999	0.038175999999999995	0.04955679999999999
2.2229339826292014	8.136501099999998	3.5329517999999998	1.2697532999999999	1.2404832	1.7877440999999998	0.0407929	0.030843399999999997	0.08876770000000002	0.08565419999999999	0.059510499999999994
2.699870536470244	15.700259100000002	7.874877099999999	2.9300287000000003	2.1973447	2.1546389	0.07288549999999999	0.0962929	0.1226018	0.1408712	0.1107183
3.1768070903112866	21.859852299999993	10.5864044	3.2419515	3.2867747999999994	3.826197299999999	0.14572209999999997	0.1771015	0.19576259999999998	0.20379040000000004	0.19614769999999998
3.6537436441523363	23.21256	9.0498548	3.884123199999999	4.4258961	4.580441800000001	0.24810529999999997	0.21073549999999996	0.32789939999999995	0.29475589999999996	0.19074799999999997
4.130680197993379	32.6450227	12.491479500000002	5.826516799999999	5.738300399999999	6.5063579	0.45245029999999997	0.3717094999999999	0.444657	0.4909284	0.3226229
4.6076167518344215	29.3647452	10.170383999999999	4.9804265	6.1321587	5.7806418	0.4855262	0.4266231999999999	0.47655339999999996	0.52137	0.39106139999999995
5.084553305675464	31.496088499999992	8.6812916	5.779084499999999	7.3372695	6.201464799999999	0.7157768	0.6392262999999999	0.7419056999999999	0.7783826	0.6216867
5.561489859516507	40.202915899999994	9.4437382	7.5364838999999995	9.178716899999998	8.901074899999998	0.9412312999999998	0.8385914000000001	1.0733875999999998	1.0816667999999998	1.2080249
6.038426413357549	43.6832317	9.0931804	8.7652805	9.8512636	9.165385899999999	1.1844930999999999	1.1040997	1.4269055	1.4756634000000002	1.6169596000000002
6.515362967198592	37.2305861	6.990040199999999	7.085233099999999	8.277135699999999	8.123502499999999	1.2928977	1.1994086	1.4926973999999997	1.3274749000000001	1.442196
6.992299521039635	58.62595340000002	10.622610200000002	11.864572499999998	10.951922599999998	13.419061699999999	2.4683051	1.8974634000000001	2.4080325	2.3195029	2.6744825
7.469236074880677	62.06072359999998	9.3960185	14.318489999999999	11.677052699999999	14.546619199999999	2.3213926000000003	2.0829020999999996	2.5574790999999997	2.3189636	2.8418058
7.946172628721727	62.41869189999999	8.587585499999998	13.597005699999999	14.0501956	13.4443344	2.4575083999999996	2.3106425999999995	2.9509222000000004	2.4779518	2.5425457000000007
8.423109182562769	69.4030673	7.667606299999999	15.305231599999997	14.6787233	15.598687899999998	2.9158733000000003	2.8279650999999992	3.8251683	3.0912186999999993	3.4925927999999997
8.900045736403811	60.3864247	6.095935399999999	15.022981299999998	12.6718142	12.5584127	2.9265601999999995	2.6367307000000006	2.9456600999999996	2.3847099	3.1436201999999995
9.376982290244854	63.8526036	6.236879399999999	15.1636082	13.611590699999999	13.230708999999997	2.9815381999999993	3.1495235	3.3652319999999993	2.9927811000000006	3.1207415
9.853918844085896	54.83878520000001	5.5264406	13.0610413	11.849935299999999	10.0848644	2.7199273999999996	2.770567199999999	3.361113899999999	2.7992762000000004	2.6656189
10.330855397926939	59.56591479999999	5.1687045000000005	12.334345799999996	12.4613886	12.326196400000002	3.286320599999999	2.9860814999999996	3.8040435000000006	3.6295811000000002	3.5692528
10.807791951767982	50.405208599999995	4.4528528	9.799343699999998	10.1182778	11.223802999999998	2.7783110000000004	2.3281182	3.4567972	2.8163688	3.4313361000000002
11.284728505609024	44.46463939999999	3.4186349999999996	8.669150799999997	8.894459099999999	9.945778899999999	2.5312534999999996	2.2836062999999993	3.3014065999999995	2.5662466	2.854102599999999
11.761665059450076	39.223081699999994	2.9530851	7.8032607999999986	7.680854999999999	8.5242442	2.4862784999999996	2.0859678999999995	2.9603448999999995	2.1544375000000002	2.5746078000000003
12.238601613291118	36.4992532	2.831389299999999	6.7369339	7.5238147	7.8929589	2.2027821999999997	1.9432397999999997	2.6077873	2.2399322999999995	2.5204147999999997
12.715538167132161	29.8785405	2.2727514999999996	6.0164721	5.996932500000001	5.889297600000001	1.6867375	1.7737057	2.3622061999999997	1.8371596999999997	2.0432777
13.192474720973204	32.20204769999999	2.2884066999999995	6.639601	6.5388366	6.106488099999999	2.1005008999999997	1.9386723	2.2364794999999997	1.9500037	2.4030588999999996
13.669411274814246	38.446513599999996	2.6136369999999998	7.484325000000001	8.1664192	7.665205400000001	2.5560615999999996	2.3401867	2.4298943	2.5059043999999995	2.6848799999999997
14.146347828655289	30.345311799999994	2.0741628999999997	6.044730500000002	5.929449999999999	5.832357899999999	2.0664776999999996	2.0155705	1.984265	1.9324368000000003	2.4658605
14.623284382496331	37.77809119999999	2.3859375	7.8197793	7.450519499999998	7.135760299999998	2.3405354	2.498469	2.6998603	2.3461757	3.1010542
15.100220936337374	34.0894501	2.0662899	7.360183799999998	6.587317199999998	6.460116299999999	2.3239097	2.4653091000000003	2.4289435999999998	2.0712067	2.3261738000000003
15.577157490178417	35.3256419	2.3151420000000003	6.8810817	7.311058799999999	6.962269199999998	2.3581308999999995	2.3956925	2.144586999999999	2.4112847000000004	2.5463950999999994
16.054094044019465	36.3654276	2.1945377999999995	7.288920999999999	8.048091000000001	6.727375099999999	2.3943692000000003	2.4221154	2.3769264	2.4273705	2.4857212
16.531030597860507	35.7019492	2.0752414	7.165931800000001	8.1470785	6.499208999999999	2.162973	2.4457039	2.4561387	2.4973316999999997	2.2523411999999996
17.00796715170155	34.3567697	1.9521210000000002	6.787735399999999	7.3652164	6.234253699999998	2.2787752	2.8845528	2.2127160999999997	2.2813485	2.3600505999999997
17.484903705542592	35.761919099999986	2.2675745000000003	7.6205605	6.887288799999999	7.433528	2.2692846999999996	2.4653245	2.1005644999999995	2.2633088999999997	2.4544847
17.961840259383635	37.731043299999996	2.2965652999999997	7.117628799999999	7.787717999999999	7.820732400000001	2.4473842	2.4408353999999997	2.574848399999999	2.6539705000000002	2.5913603
18.438776813224678	42.720841699999994	2.551104	8.519648899999998	9.046691	8.479980800000002	2.914901499999999	2.7577308	2.7798379	2.9088402999999996	2.7621065
18.91571336706572	43.4581264	2.7649284	9.0325204	8.190717099999999	9.043612300000001	2.815094399999999	2.9554997	2.8409903	2.8987127	2.9160510999999993
19.392649920906763	42.0428456	2.6274375000000005	7.766447400000001	8.624844	9.0017592	3.0557659000000004	2.837107	2.4585147999999997	3.2103914	2.4605783999999997
19.869586474747805	39.6616152	2.4203443999999994	7.929004199999999	8.1783944	8.1553036	2.6254380000000004	2.7280445	2.5531101	2.8016487999999993	2.2703271999999997
20.346523028588848	44.08642369999999	2.8412794999999993	8.672530299999998	9.611926899999998	8.001799799999999	3.0730242	3.2901688999999994	2.6597217	3.1852001	2.7507722999999995
20.82345958242989	39.2831335	2.6222912	6.954510999999999	8.4455281	7.435005099999999	2.665422	2.8054767000000003	2.7056951	3.1135696999999998	2.5356345999999994
21.300396136270933	43.184270299999994	3.2019518999999996	8.745028900000001	8.5073905	8.3452104	2.9700583999999997	3.1691973999999994	2.684822399999999	3.0654476	2.4951627999999992
21.777332690111976	44.637975299999994	3.2369156999999995	8.4838902	8.766595200000001	8.8589874	3.0314153	3.2508565	3.0467266000000004	3.0908185	2.8717698999999994
22.254269243953033	51.61985189999999	4.139870999999999	9.5392487	10.630544800000001	9.779264	2.9465127999999994	3.6875431999999995	3.7686241000000003	3.7261588	3.4020845000000004
22.731205797794075	52.15421659999999	4.1547168999999995	10.025897799999997	10.5101164	9.9114574	3.7157595999999997	3.4080104999999996	3.4823534999999994	3.5653125	3.3805920000000005
23.208142351635118	45.790633799999995	3.554126	8.270792199999999	9.029985000000002	8.905754199999999	3.1202315999999994	3.3981833	3.2683887	3.2223810999999993	3.0207916999999997
23.68507890547616	47.0596554	3.8924391999999997	8.5651846	8.7378799	8.966417700000001	3.0393824999999994	3.4255581999999993	3.3961642000000007	3.6729925999999993	3.363636500000001
24.162015459317203	49.4125467	4.4582045	8.864420899999997	9.2505765	9.547716900000003	3.2850892000000003	3.5466438999999994	3.3720759999999994	3.4168509	3.6709679000000004
24.638952013158246	46.62377999999999	3.827220699999999	8.9584384	8.2241576	9.303866399999999	3.3391493	3.3413815999999996	3.0419500999999998	3.3291642999999995	3.2584516
25.11588856699929	45.3505524	4.311367499999999	8.0117357	8.0401978	8.454545699999999	3.0631857999999994	3.5119144	3.1520213	3.4536025999999995	3.3519815999999993
25.59282512084033	54.82141879999999	5.1496211	10.060354899999998	10.055320599999998	10.0626358	3.6650853000000003	4.2766498	3.813231799999999	4.0080361999999985	3.7304832999999995
26.069761674681374	54.03231629999999	5.2545851	9.022902199999999	10.4121081	9.3341546	3.5851536	4.4122406000000005	3.5786814999999996	4.393364599999999	4.0391259999999996
26.546698228522416	51.3897177	5.0639057	9.420013799999998	9.579186599999998	8.900346999999998	3.4994221999999997	3.7839135999999987	3.2923708	4.1056969	3.7448611
27.02363478236346	57.9931467	5.705943999999999	11.0001295	10.5657779	9.9811455	3.858034800000001	4.323861399999999	3.8154081	4.574866	4.1679794999999995
27.5005713362045	55.58394070000001	5.475518400000001	9.736777	11.118641499999999	9.6633577	3.6036105	4.065212999999999	4.0336787	3.9362635	3.9508803999999995
27.977507890045544	53.5472777	5.1353846999999995	9.5088683	10.065833300000001	8.6252733	3.9257155999999997	3.9222588000000003	4.2901267	4.182951499999999	3.8908654999999994
28.454444443886587	54.085310799999995	5.1439619	9.7305171	9.8292307	9.470494100000002	4.2441221	3.9411724	4.095121799999999	4.2258018	3.4048889000000004
28.93138099772763	54.8254236	5.4032346	8.8548412	10.0260977	9.9383176	4.0458742999999995	4.1497747	4.2316752	4.467535799999999	3.7080724999999997
29.408317551568672	61.4300038	6.2652012	10.2761477	10.996830799999998	10.579337799999996	4.7210196	4.6430777999999995	4.753029	4.748452399999999	4.446907499999999
29.885254105409714	64.1189044	7.3306529000000005	10.743516199999998	11.0260376	11.847631099999997	5.0169673999999995	4.777	5.0278712	4.4310976	3.9181304
30.36219065925077	58.94834579999999	6.665174000000001	9.7978641	9.878401299999998	9.8059275	4.6519147	4.9353161	4.719206999999999	4.495347200000001	3.999193899999999
30.839127213091814	65.3252831	7.100639699999999	11.296541200000002	11.1655976	10.874399899999997	5.388494499999999	5.0494638	4.679157099999999	5.496410600000001	4.2745787
31.316063766932857	56.52117369999999	6.506728099999998	8.7305018	9.3347404	9.8804391	4.6866512	4.6092934	4.316233799999999	4.6757912	3.7807947
31.7930003207739	62.05638099999999	6.833497999999999	9.947877599999998	11.230980299999999	10.360070199999997	4.7234008	4.8657685	4.5374403999999995	5.3210686	4.236276599999999
32.26993687461494	58.30618089999999	6.7146829	10.272539899999996	9.675919599999999	8.1307467	5.069293399999999	4.6592020000000005	4.6104517000000005	5.0124662	4.1608785
32.746873428455984	62.71661719999998	7.3434216	10.1507772	10.174554100000002	9.681216599999999	5.568351299999999	4.9656771	5.2448047	5.197829499999999	4.3899851
33.22380998229703	63.10087109999999	7.7943181	10.798242899999998	8.6521844	10.235342700000002	5.6001254	5.266808299999999	5.0476711	4.7676774	4.938500799999998
33.70074653613807	63.097593299999986	8.642413200000002	9.314076299999998	9.7156102	9.3185033	5.416888500000001	5.2705928	5.051328900000001	5.697627699999999	4.670552399999999
34.17768308997911	58.713962899999984	7.4461224999999995	9.2320934	8.220996600000001	8.661090799999998	5.7287772	5.172207199999999	4.8821846	4.948971999999999	4.421518599999999
34.654619643820155	67.4183815	8.6567947	9.903519100000002	10.0864113	9.5872178	6.085788900000001	6.5095689	5.517213099999998	5.851189700000001	5.2206779999999995
35.1315561976612	57.9496326	6.7649262	9.0095948	8.1861506	8.133787400000001	5.960683599999999	5.3607819	4.517971599999999	5.0942585	4.921478
35.60849275150224	61.32269040000001	7.811098599999999	9.058570399999999	7.8942664	9.1204833	6.107221099999999	5.6829407	5.015802	5.173477799999999	5.4588301
36.08542930534328	60.653437899999986	7.6519110999999995	9.037038	7.864384499999999	9.259551299999998	5.504582599999998	5.2222192	4.9826669	5.300803299999999	5.830281
36.562365859184325	62.946631299999986	7.599689700000001	8.8309811	9.1391952	8.4145128	6.0215244	6.013255200000001	5.422361199999999	5.603873899999999	5.9012378
37.03930241302537	48.539314299999994	5.5119973	7.072170900000001	6.903466300000001	6.8354789	4.0578295	4.5381622	4.1612789999999995	4.560769799999999	4.8981604
37.51623896686641	56.8275736	7.1206182	8.3267653	7.9612179	7.8952395000000015	5.910599199999999	4.5575041999999995	4.6022176	4.797315500000001	5.656096199999999
37.99317552070745	48.52101939999999	5.812441399999999	6.531055299999999	6.808550099999999	6.4404818	5.3568259000000005	4.084288	3.9183209	4.8284970000000005	4.740558999999999
38.47011207454851	51.32700659999999	5.867556	6.584202499999999	7.643321	7.5370466	4.7263071	4.7892363	4.370979399999999	5.1092747	4.699082999999999
38.94704862838955	46.907652899999995	5.968032699999999	6.6666511	6.413221899999999	6.0544736	4.4626186	4.5193142	4.0215694	4.4577068	4.344064599999999
39.423985182230595	54.15408469999999	6.883762199999997	7.947291699999999	6.772548699999999	7.6178602999999985	5.4817861	5.240927199999999	4.436806	5.178337899999999	4.5947645999999995
39.90092173607164	40.891020499999996	5.4959031	5.8888812	4.6182954999999986	5.6124065	3.6380628	3.7867640000000002	3.4403231	4.2032685999999995	4.207115699999999
40.37785828991268	44.1015177	5.833148900000001	6.341949999999999	6.320391399999999	4.849750799999999	3.9021392999999995	4.1090325	4.0543701	4.3979572	4.2927775
40.85479484375372	42.5371563	5.466151899999999	6.243336499999999	5.618928799999999	5.4802552	3.5810931999999998	3.1371163999999996	4.1857454999999995	3.9080702	4.9164585999999995
41.331731397594766	29.029073799999995	3.9575598999999997	4.2442539	3.5587573999999997	4.061326599999999	2.653747	2.5333651	2.9050344	2.423995	2.6910344999999993
41.80866795143581	41.9578771	6.164209599999999	5.722107899999998	5.380136	6.3298014	3.956716299999999	3.125982299999999	3.855234499999999	3.8817358	3.541953299999999
42.28560450527685	42.608571	6.156771599999999	6.2212854	5.046149099999999	6.472170499999999	4.0673395999999995	3.5614632999999998	3.5654432000000003	3.1905381999999998	4.3274101
42.76254105911789	31.734718500000003	4.6566955	4.360306699999999	3.6592395	4.429527399999999	3.3016102000000003	2.7191018	3.0643432	2.733884	2.8100102
43.239477612958936	27.222796300000002	4.3761532999999995	3.5428137000000004	3.0361304999999996	4.0246398	2.852035	2.2754396	2.5203626	2.5079831	2.0872386999999994
43.71641416679998	40.077088	5.3358851	5.286413400000001	5.2127745	6.0936409	3.8294202	3.4268072999999997	3.097742199999999	3.8696396999999996	3.9247647
44.19335072064102	33.3977887	4.620714400000001	4.0398174	4.378722799999999	4.742877299999999	3.2695707999999994	3.4053706999999998	2.5410453	3.2953083000000003	3.1043617
44.670287274482064	30.6200488	3.9150836000000004	3.9839811000000003	4.0394873	4.319342999999999	2.9898112	3.0301647	2.4744718	2.8906444999999996	2.9770615999999994
45.147223828323106	24.6377252	3.5061915000000003	3.2636527	3.1564463	3.1270742	2.2503164999999994	2.4008209000000003	2.0256847000000002	2.6207860000000003	2.2867523999999997
45.62416038216415	35.1953918	4.403078699999998	4.624529	5.174976500000001	4.4907428000000005	3.4575457	3.2291428000000004	3.485013900000001	2.9688108999999994	3.3615515
46.10109693600519	27.019986199999998	2.9300161	3.3811293999999994	3.9067048000000004	3.500678999999999	2.9306347999999995	2.4446553	2.6565089999999993	2.5368640999999994	2.7327936999999993
46.57803348984625	34.2182143	3.6910751	4.702692	4.5807343	4.8027877	3.5209618000000003	3.0612385	3.4237006999999995	3.0130536	3.4219706
47.05497004368729	34.496862699999994	3.8367092999999994	4.422018299999999	4.060968299999999	5.343807999999999	3.0968435	3.1164622	3.658079799999999	3.4187459	3.5432273999999997
47.531906597528334	28.037423099999994	3.3255310000000002	3.5950748999999997	3.0524078	4.0785	2.5704780000000005	2.7170324	3.3127052999999997	2.4311165	2.9545772
48.008843151369376	24.766291199999994	2.8959772	2.7857292	3.2820072999999996	3.3220864999999997	2.4082677	2.401407	3.1162345	2.0591523	2.4954294999999993
48.48577970521042	28.971075400000004	3.2436078999999998	3.5154580999999996	2.9010510999999997	3.9737084	3.2350795	2.8003725999999998	3.2270635999999997	2.4066771	3.6680570999999995
48.96271625905146	33.9228452	3.6335090999999995	4.4236044	3.3601985	4.4206807999999995	3.4037597	3.9705917999999993	3.8616879	2.9965541	3.8522589000000007
49.439652812892504	34.92310379999999	3.6523819	3.737468299999999	3.3624411000000003	4.0437750999999995	3.8740827999999996	3.8857424	3.9610808	3.5922312	4.813900199999999
49.91658936673355	26.1289167	2.6465203999999996	2.5674724999999996	2.6249883	3.0059601000000002	2.437929	2.9019909	3.5304895000000003	2.861855	3.5517109999999996
50.39352592057459	34.16467289999999	3.1938164	3.2517685	3.2019729	3.884650699999999	3.680006299999999	3.5979448000000005	4.4983122999999985	4.2773491	4.5788519
50.87046247441563	40.0999833	3.6222188	3.6994829000000005	3.5252341999999994	4.0805783	4.2766712	4.8219136	5.2955157999999996	5.729397599999999	5.0489709000000005