# Projected DOS for atomic kind Pt at iteration step i = 0, E(Fermi) =    -0.132853 a.u.
#     MO Eigenvalue [a.u.]      Occupation                 s                py                pz                px               d-2               d-1                d0               d+1               d+2
       1         -1.868074        2.000000        0.00004693        0.00000236        0.00001322        0.00000251        0.00000505        0.00002940        0.00009796        0.00002732        0.00000471
       2         -1.830597        2.000000        0.00077589        0.00003351        0.00022766        0.00003109        0.00002503        0.00022226        0.00085986        0.00021409        0.00007977
       3         -1.812866        2.000000        0.00143027        0.00005441        0.00031293        0.00005594        0.00004823        0.00033465        0.00214005        0.00136470        0.00018277
       4         -1.434087        2.000000        0.00000000        0.00000000        0.00000000        0.00000000        0.00000000        0.00000000        0.00000000        0.00000000        0.00000000
       5         -1.425310        2.000000        0.00000000        0.00000000        0.00000000        0.00000000        0.00000000        0.00000000        0.00000000        0.00000000        0.00000000
       6         -1.424250        2.000000        0.00000000        0.00000000        0.00000000        0.00000000        0.00000000        0.00000000        0.00000000        0.00000000        0.00000000
       7         -1.416192        2.000000        0.00000000        0.00000000        0.00000000        0.00000000        0.00000000        0.00000000        0.00000000        0.00000000        0.00000000
       8         -1.414921        2.000000        0.00000000        0.00000000        0.00000000        0.00000000        0.00000000        0.00000000        0.00000000        0.00000000        0.00000000
       9         -1.412568        2.000000        0.00000000        0.00000000        0.00000000        0.00000000        0.00000000        0.00000000        0.00000000        0.00000000        0.00000000
      10         -1.406084        2.000000        0.00000000        0.00000000        0.00000000        0.00000000        0.00000000        0.00000000        0.00000000        0.00000000        0.00000000
      11         -1.404986        2.000000        0.00000000        0.00000000        0.00000000        0.00000000        0.00000000        0.00000000        0.00000000        0.00000000        0.00000000
      12         -1.401783        2.000000        0.00000000        0.00000000        0.00000000        0.00000000        0.00000000        0.00000000        0.00000000        0.00000000        0.00000000
      13         -1.401445        2.000000        0.00000000        0.00000000        0.00000000        0.00000000        0.00000000        0.00000000        0.00000000        0.00000000        0.00000000
      14         -1.395455        2.000000        0.00000000        0.00000000        0.00000000        0.00000000        0.00000000        0.00000000        0.00000000        0.00000000        0.00000000
      15         -1.394362        2.000000        0.00000000        0.00000000        0.00000000        0.00000000        0.00000000        0.00000000        0.00000000        0.00000000        0.00000000
      16         -1.392846        2.000000        0.00000000        0.00000000        0.00000000        0.00000000        0.00000000        0.00000000        0.00000000        0.00000000        0.00000000
      17         -1.390897        2.000000        0.00000000        0.00000000        0.00000000        0.00000000        0.00000000        0.00000000        0.00000000        0.00000000        0.00000000
      18         -1.390061        2.000000        0.00000000        0.00000000        0.00000000        0.00000000        0.00000000        0.00000000        0.00000000        0.00000000        0.00000000
      19         -1.384185        2.000000        0.00000000        0.00000000        0.00000000        0.00000000        0.00000000        0.00000000        0.00000000        0.00000000        0.00000000
      20         -1.383199        2.000000        0.00000000        0.00000000        0.00000000        0.00000000        0.00000000        0.00000000        0.00000000        0.00000000        0.00000000
      21         -1.382301        2.000000        0.00000000        0.00000000        0.00000000        0.00000000        0.00000000        0.00000000        0.00000000        0.00000000        0.00000000
      22         -1.380921        2.000000        0.00000000        0.00000000        0.00000000        0.00000000        0.00000000        0.00000000        0.00000000        0.00000000        0.00000000
      23         -1.372884        2.000000        0.00000000        0.00000000        0.00000000        0.00000000        0.00000000        0.00000000        0.00000000        0.00000000        0.00000000
      24         -1.372658        2.000000        0.00000000        0.00000000        0.00000000        0.00000000        0.00000000        0.00000000        0.00000000        0.00000000        0.00000000
      25         -1.371821        2.000000        0.00000000        0.00000000        0.00000000        0.00000000        0.00000000        0.00000000        0.00000000        0.00000000        0.00000000
      26         -1.362487        2.000000        0.00000000        0.00000000        0.00000000        0.00000000        0.00000000        0.00000000        0.00000000        0.00000000        0.00000000
      27         -1.361453        2.000000        0.00000000        0.00000000        0.00000000        0.00000000        0.00000000        0.00000000        0.00000000        0.00000000        0.00000000
      28         -1.351215        2.000000        0.00000000        0.00000000        0.00000000        0.00000000        0.00000000        0.00000000        0.00000000        0.00000000        0.00000000
      29         -1.033406        2.000000        0.00000000        0.00000000        0.00000000        0.00000000        0.00000000        0.00000000        0.00000000        0.00000000        0.00000000
      30         -1.022023        2.000000        0.00000000        0.00000000        0.00000000        0.00000000        0.00000000        0.00000000        0.00000000        0.00000000        0.00000000
      31         -1.018246        2.000000        0.00000000        0.00000000        0.00000000        0.00000000        0.00000000        0.00000000        0.00000000        0.00000000        0.00000000
      32         -1.016258        2.000000        0.00000000        0.00000000        0.00000000        0.00000000        0.00000000        0.00000000        0.00000000        0.00000000        0.00000000
      33         -1.015703        2.000000        0.00000009        0.00000000        0.00000003        0.00000001        0.00000001        0.00000002        0.00000017        0.00000010        0.00000001
      34         -1.010749        2.000000        0.00000004        0.00000000        0.00000002        0.00000001        0.00000001        0.00000002        0.00000014        0.00000005        0.00000001
      35         -1.010455        2.000000        0.00000053        0.00000002        0.00000019        0.00000010        0.00000009        0.00000027        0.00000189        0.00000085        0.00000012
      36         -1.009872        2.000000        0.00000004        0.00000000        0.00000002        0.00000001        0.00000001        0.00000002        0.00000015        0.00000005        0.00000001
      37         -1.008414        2.000000        0.00000026        0.00000000        0.00000010        0.00000002        0.00000002        0.00000005        0.00000066        0.00000018        0.00000003
      38         -1.007886        2.000000        0.00000009        0.00000000        0.00000004        0.00000001        0.00000001        0.00000004        0.00000031        0.00000010        0.00000002
      39         -1.007019        2.000000        0.00000019        0.00000001        0.00000005        0.00000002        0.00000002        0.00000006        0.00000022        0.00000017        0.00000003
      40         -1.006198        2.000000        0.00000005        0.00000000        0.00000002        0.00000000        0.00000001        0.00000003        0.00000014        0.00000005        0.00000001
      41         -1.005190        2.000000        0.00000001        0.00000000        0.00000000        0.00000000        0.00000000        0.00000001        0.00000003        0.00000001        0.00000000
      42         -1.004605        2.000000        0.00000001        0.00000000        0.00000000        0.00000000        0.00000000        0.00000001        0.00000002        0.00000001        0.00000000
      43         -1.003488        2.000000        0.00000001        0.00000000        0.00000000        0.00000000        0.00000000        0.00000001        0.00000002        0.00000000        0.00000000
      44         -1.002632        2.000000        0.00000000        0.00000000        0.00000000        0.00000000        0.00000000        0.00000000        0.00000000        0.00000000        0.00000000
      45         -1.001664        2.000000        0.00000044        0.00000002        0.00000018        0.00000003        0.00000004        0.00000026        0.00000124        0.00000041        0.00000007
      46         -1.001087        2.000000        0.00000033        0.00000002        0.00000012        0.00000005        0.00000008        0.00000033        0.00000087        0.00000050        0.00000005
      47         -0.999865        2.000000        0.00000002        0.00000000        0.00000000        0.00000000        0.00000000        0.00000001        0.00000004        0.00000002        0.00000000
      48         -0.999449        2.000000        0.00000027        0.00000001        0.00000010        0.00000007        0.00000007        0.00000019        0.00000115        0.00000080        0.00000008
      49         -0.997868        2.000000        0.00000189        0.00000014        0.00000042        0.00000005        0.00000006        0.00000119        0.00000373        0.00000122        0.00000027
      50         -0.996723        2.000000        0.00000085        0.00000008        0.00000028        0.00000004        0.00000004        0.00000092        0.00000213        0.00000091        0.00000018
      51         -0.996512        2.000000        0.00000094        0.00000005        0.00000034        0.00000011        0.00000013        0.00000069        0.00000316        0.00000173        0.00000021
      52         -0.996282        2.000000        0.00000200        0.00000008        0.00000077        0.00000035        0.00000043        0.00000122        0.00000782        0.00000414        0.00000052
      53         -0.995999        2.000000        0.00000007        0.00000000        0.00000003        0.00000001        0.00000001        0.00000004        0.00000027        0.00000014        0.00000002
      54         -0.994331        2.000000        0.00000000        0.00000000        0.00000000        0.00000000        0.00000000        0.00000001        0.00000002        0.00000001        0.00000000
      55         -0.994188        2.000000        0.00000002        0.00000000        0.00000001        0.00000000        0.00000001        0.00000001        0.00000009        0.00000003        0.00000000
      56         -0.991912        2.000000        0.00000001        0.00000000        0.00000000        0.00000000        0.00000000        0.00000000        0.00000003        0.00000001        0.00000000
      57         -0.989936        2.000000        0.00000024        0.00000001        0.00000015        0.00000002        0.00000003        0.00000033        0.00000110        0.00000033        0.00000006
      58         -0.989656        2.000000        0.00000018        0.00000002        0.00000009        0.00000002        0.00000005        0.00000046        0.00000111        0.00000025        0.00000005
      59         -0.989467        2.000000        0.00000028        0.00000001        0.00000016        0.00000003        0.00000006        0.00000010        0.00000180        0.00000045        0.00000004
      60         -0.988633        2.000000        0.00000032        0.00000002        0.00000018        0.00000002        0.00000003        0.00000035        0.00000124        0.00000034        0.00000007
      61         -0.987637        2.000000        0.00000054        0.00000001        0.00000031        0.00000003        0.00000005        0.00000026        0.00000227        0.00000042        0.00000008
      62         -0.987412        2.000000        0.00000037        0.00000001        0.00000021        0.00000002        0.00000003        0.00000011        0.00000154        0.00000036        0.00000005
      63         -0.986130        2.000000        0.00000287        0.00000004        0.00000139        0.00000022        0.00000040        0.00000063        0.00001105        0.00000347        0.00000029
      64         -0.985717        2.000000        0.00000009        0.00000000        0.00000004        0.00000001        0.00000002        0.00000004        0.00000034        0.00000014        0.00000001
      65         -0.984469        2.000000        0.00000241        0.00000017        0.00000101        0.00000028        0.00000042        0.00000362        0.00001024        0.00000373        0.00000049
      66         -0.984291        2.000000        0.00000035        0.00000003        0.00000020        0.00000003        0.00000006        0.00000071        0.00000164        0.00000056        0.00000010
      67         -0.984253        2.000000        0.00000075        0.00000003        0.00000028        0.00000007        0.00000010        0.00000056        0.00000286        0.00000089        0.00000009
      68         -0.982990        2.000000        0.00000284        0.00000025        0.00000134        0.00000026        0.00000048        0.00000578        0.00001169        0.00000420        0.00000063
      69         -0.982080        2.000000        0.00000205        0.00000005        0.00000079        0.00000016        0.00000021        0.00000103        0.00000731        0.00000186        0.00000019
      70         -0.981614        2.000000        0.00000106        0.00000002        0.00000043        0.00000007        0.00000009        0.00000036        0.00000346        0.00000093        0.00000008
      71         -0.981186        2.000000        0.00002525        0.00000030        0.00001117        0.00000150        0.00000212        0.00000636        0.00008081        0.00002180        0.00000203
      72         -0.978944        2.000000        0.00000248        0.00000006        0.00000095        0.00000016        0.00000025        0.00000120        0.00000791        0.00000223        0.00000023
      73         -0.978551        2.000000        0.00000178        0.00000004        0.00000068        0.00000012        0.00000017        0.00000089        0.00000567        0.00000156        0.00000017
      74         -0.976116        2.000000        0.00000121        0.00000005        0.00000046        0.00000011        0.00000014        0.00000095        0.00000426        0.00000153        0.00000019
      75         -0.975869        2.000000        0.00000365        0.00000016        0.00000146        0.00000033        0.00000042        0.00000292        0.00001374        0.00000431        0.00000060
      76         -0.973879        2.000000        0.00000000        0.00000000        0.00000000        0.00000000        0.00000000        0.00000000        0.00000000        0.00000000        0.00000000
      77         -0.973186        2.000000        0.00000001        0.00000000        0.00000000        0.00000000        0.00000000        0.00000001        0.00000002        0.00000001        0.00000000
      78         -0.971994        2.000000        0.00000004        0.00000000        0.00000002        0.00000000        0.00000001        0.00000005        0.00000015        0.00000006        0.00000001
      79         -0.971578        2.000000        0.00000002        0.00000000        0.00000001        0.00000000        0.00000000        0.00000003        0.00000008        0.00000003        0.00000000
      80         -0.970769        2.000000        0.00005021        0.00000233        0.00002096        0.00000491        0.00000672        0.00005993        0.00018309        0.00009045        0.00001225
      81         -0.970679        2.000000        0.00004282        0.00000193        0.00001763        0.00000428        0.00000585        0.00004831        0.00015504        0.00007992        0.00001023
      82         -0.969626        2.000000        0.00000316        0.00000016        0.00000155        0.00000027        0.00000062        0.00000599        0.00001385        0.00000613        0.00000084
      83         -0.968464        2.000000        0.00000946        0.00000041        0.00000424        0.00000088        0.00000152        0.00001142        0.00003540        0.00001811        0.00000195
      84         -0.966367        2.000000        0.00006773        0.00000126        0.00003306        0.00000264        0.00000626        0.00002939        0.00023977        0.00004936        0.00000805
      85         -0.964815        2.000000        0.00000231        0.00000007        0.00000114        0.00000040        0.00000078        0.00000284        0.00001172        0.00000920        0.00000067
      86         -0.963526        2.000000        0.00000216        0.00000004        0.00000094        0.00000020        0.00000042        0.00000154        0.00000747        0.00000453        0.00000039
      87         -0.961938        2.000000        0.00000164        0.00000001        0.00000091        0.00000012        0.00000010        0.00000050        0.00000692        0.00000248        0.00000020
      88         -0.961538        2.000000        0.00000149        0.00000001        0.00000082        0.00000010        0.00000009        0.00000044        0.00000601        0.00000207        0.00000018
      89         -0.959316        2.000000        0.00000382        0.00000029        0.00000187        0.00000025        0.00000150        0.00000592        0.00002366        0.00000578        0.00000082
      90         -0.958982        2.000000        0.00133617        0.00002653        0.00074306        0.00003761        0.00003335        0.00056079        0.00420374        0.00073502        0.00019145
      91         -0.958467        2.000000        0.00117134        0.00004170        0.00070722        0.00003869        0.00008217        0.00102844        0.00428270        0.00087242        0.00023444
      92         -0.956601        2.000000        0.00129707        0.00007604        0.00057452        0.00002989        0.00013489        0.00217514        0.00534504        0.00060316        0.00037805
      93         -0.955415        2.000000        0.00010838        0.00000443        0.00004746        0.00000592        0.00001162        0.00013049        0.00038754        0.00012515        0.00001045
      94         -0.953167        2.000000        0.00000000        0.00000000        0.00000000        0.00000000        0.00000000        0.00000000        0.00000000        0.00000000        0.00000000
      95         -0.951871        2.000000        0.00003310        0.00000229        0.00002183        0.00000524        0.00001966        0.00007858        0.00025197        0.00013413        0.00001674
      96         -0.951134        2.000000        0.00000031        0.00000002        0.00000021        0.00000004        0.00000017        0.00000067        0.00000223        0.00000118        0.00000016
      97         -0.949052        2.000000        0.00237230        0.00002409        0.00105688        0.00018528        0.00029504        0.00080822        0.00976870        0.00424390        0.00041334
      98         -0.948272        2.000000        0.00077235        0.00006807        0.00046737        0.00007463        0.00020885        0.00199120        0.00538865        0.00157951        0.00031829
      99         -0.948070        2.000000        0.00064116        0.00005725        0.00041153        0.00005360        0.00018184        0.00168319        0.00455922        0.00110566        0.00035296
     100         -0.944290        2.000000        0.00006919        0.00000362        0.00003254        0.00000761        0.00001741        0.00011260        0.00033198        0.00016228        0.00001763
     101         -0.938098        2.000000        0.00169427        0.00014427        0.00068378        0.00026282        0.00109771        0.00472313        0.00799173        0.00618729        0.00057661
     102         -0.933435        2.000000        0.00224350        0.00018347        0.00134272        0.00008371        0.00056068        0.00695434        0.01103790        0.00299140        0.00108144
     103         -0.930680        2.000000        0.00189099        0.00012662        0.00071625        0.00018158        0.00092800        0.00606447        0.00898931        0.00512894        0.00047569
     104         -0.929731        2.000000        0.00107722        0.00009148        0.00054474        0.00017322        0.00089589        0.00370840        0.00683039        0.00515150        0.00077994
     105         -0.928263        2.000000        0.00114832        0.00004016        0.00057880        0.00015877        0.00054252        0.00171637        0.00512023        0.00440780        0.00059855
     106         -0.921389        2.000000        0.00052543        0.00011335        0.00033858        0.00007642        0.00072025        0.00431758        0.00430586        0.00318359        0.00046129
     107         -0.920461        2.000000        0.00108750        0.00009307        0.00058266        0.00005130        0.00063832        0.00398692        0.00592064        0.00151141        0.00035664
     108         -0.907102        2.000000        0.00147421        0.00012204        0.00077182        0.00017380        0.00120128        0.00442253        0.00635558        0.00361782        0.00082997
     109         -0.904458        2.000000        0.00104678        0.00006044        0.00059348        0.00034966        0.00065672        0.00235933        0.00499577        0.00779766        0.00068199
     110         -0.897530        2.000000        0.00128201        0.00008724        0.00107342        0.00012461        0.00048866        0.00236953        0.00616559        0.00339043        0.00087033
     111         -0.630097        2.000000        0.00000000        0.00000000        0.00000000        0.00000000        0.00000000        0.00000000        0.00000000        0.00000000        0.00000000
     112         -0.629735        2.000000        0.00000000        0.00000000        0.00000000        0.00000000        0.00000000        0.00000000        0.00000000        0.00000000        0.00000000
     113         -0.620888        2.000000        0.00000000        0.00000000        0.00000000        0.00000000        0.00000000        0.00000000        0.00000000        0.00000000        0.00000000
     114         -0.619616        2.000000        0.00000000        0.00000000        0.00000000        0.00000000        0.00000000        0.00000000        0.00000000        0.00000000        0.00000000
     115         -0.610175        2.000000        0.00000000        0.00000000        0.00000000        0.00000000        0.00000000        0.00000000        0.00000000        0.00000000        0.00000000
     116         -0.609900        2.000000        0.00000000        0.00000000        0.00000000        0.00000000        0.00000000        0.00000000        0.00000000        0.00000000        0.00000000
     117         -0.604350        2.000000        0.00000000        0.00000000        0.00000000        0.00000000        0.00000000        0.00000000        0.00000000        0.00000000        0.00000000
     118         -0.603666        2.000000        0.00000000        0.00000000        0.00000000        0.00000000        0.00000000        0.00000000        0.00000000        0.00000000        0.00000000
     119         -0.599052        2.000000        0.00000000        0.00000000        0.00000000        0.00000000        0.00000000        0.00000000        0.00000000        0.00000000        0.00000000
     120         -0.597291        2.000000        0.00000000        0.00000000        0.00000000        0.00000000        0.00000000        0.00000000        0.00000000        0.00000000        0.00000000
     121         -0.595787        2.000000        0.00000000        0.00000000        0.00000000        0.00000000        0.00000000        0.00000000        0.00000000        0.00000000        0.00000000
     122         -0.595577        2.000000        0.00000000        0.00000000        0.00000000        0.00000000        0.00000000        0.00000000        0.00000000        0.00000000        0.00000000
     123         -0.589686        2.000000        0.00000000        0.00000000        0.00000000        0.00000000        0.00000000        0.00000000        0.00000000        0.00000000        0.00000000
     124         -0.588067        2.000000        0.00000000        0.00000000        0.00000000        0.00000000        0.00000000        0.00000000        0.00000000        0.00000000        0.00000000
     125         -0.587040        2.000000        0.00000000        0.00000000        0.00000000        0.00000000        0.00000000        0.00000000        0.00000000        0.00000000        0.00000000
     126         -0.586783        2.000000        0.00000000        0.00000000        0.00000000        0.00000000        0.00000000        0.00000000        0.00000000        0.00000000        0.00000000
     127         -0.585024        2.000000        0.00000000        0.00000000        0.00000000        0.00000000        0.00000000        0.00000000        0.00000000        0.00000000        0.00000000
     128         -0.582206        2.000000        0.00000000        0.00000000        0.00000000        0.00000000        0.00000000        0.00000000        0.00000000        0.00000000        0.00000000
     129         -0.581704        2.000000        0.00000000        0.00000000        0.00000000        0.00000000        0.00000000        0.00000000        0.00000000        0.00000000        0.00000000
     130         -0.579700        2.000000        0.00000000        0.00000000        0.00000000        0.00000000        0.00000000        0.00000000        0.00000000        0.00000000        0.00000000
     131         -0.576345        2.000000        0.00000122        0.00000003        0.00000044        0.00000011        0.00000019        0.00000051        0.00000070        0.00000096        0.00000038
     132         -0.575097        2.000000        0.00000000        0.00000000        0.00000000        0.00000000        0.00000000        0.00000000        0.00000000        0.00000000        0.00000000
     133         -0.574195        2.000000        0.00000008        0.00000000        0.00000003        0.00000001        0.00000001        0.00000003        0.00000005        0.00000006        0.00000003
     134         -0.574076        2.000000        0.00000000        0.00000000        0.00000000        0.00000000        0.00000000        0.00000000        0.00000000        0.00000000        0.00000000
     135         -0.573719        2.000000        0.00000000        0.00000000        0.00000000        0.00000000        0.00000000        0.00000000        0.00000000        0.00000000        0.00000000
     136         -0.572600        2.000000        0.00000000        0.00000000        0.00000000        0.00000000        0.00000000        0.00000000        0.00000000        0.00000000        0.00000000
     137         -0.571922        2.000000        0.00000000        0.00000000        0.00000000        0.00000000        0.00000000        0.00000000        0.00000000        0.00000000        0.00000000
     138         -0.571688        2.000000        0.00000000        0.00000000        0.00000000        0.00000000        0.00000000        0.00000000        0.00000000        0.00000000        0.00000000
     139         -0.570147        2.000000        0.00000000        0.00000000        0.00000000        0.00000000        0.00000000        0.00000000        0.00000000        0.00000000        0.00000000
     140         -0.568860        2.000000        0.00000000        0.00000000        0.00000000        0.00000000        0.00000000        0.00000000        0.00000000        0.00000000        0.00000000
     141         -0.568269        2.000000        0.00000001        0.00000000        0.00000000        0.00000000        0.00000000        0.00000001        0.00000002        0.00000001        0.00000000
     142         -0.567013        2.000000        0.00000001        0.00000000        0.00000001        0.00000000        0.00000000        0.00000001        0.00000003        0.00000001        0.00000001
     143         -0.566385        2.000000        0.00000002        0.00000000        0.00000001        0.00000000        0.00000000        0.00000002        0.00000006        0.00000002        0.00000001
     144         -0.566235        2.000000        0.00000018        0.00000001        0.00000009        0.00000001        0.00000003        0.00000018        0.00000046        0.00000015        0.00000008