# Projected DOS for atomic kind Li at iteration step i = 0, E(Fermi) =    -0.132853 a.u.
#     MO Eigenvalue [a.u.]      Occupation                 s                py                pz                px
       1         -1.868074        2.000000        0.96973304        0.00000301        0.00002564        0.00003851
       2         -1.830597        2.000000        0.97046055        0.00001677        0.00001923        0.00001335
       3         -1.812866        2.000000        0.96624265        0.00003437        0.00003945        0.00005368
       4         -1.434087        2.000000        0.00000000        0.00000000        0.00000000        0.00000000
       5         -1.425310        2.000000        0.00000000        0.00000000        0.00000000        0.00000000
       6         -1.424250        2.000000        0.00000000        0.00000000        0.00000000        0.00000000
       7         -1.416192        2.000000        0.00000000        0.00000000        0.00000000        0.00000000
       8         -1.414921        2.000000        0.00000000        0.00000000        0.00000000        0.00000000
       9         -1.412568        2.000000        0.00000000        0.00000000        0.00000000        0.00000000
      10         -1.406084        2.000000        0.00000000        0.00000000        0.00000000        0.00000000
      11         -1.404986        2.000000        0.00000000        0.00000000        0.00000000        0.00000000
      12         -1.401783        2.000000        0.00000000        0.00000000        0.00000000        0.00000000
      13         -1.401445        2.000000        0.00000000        0.00000000        0.00000000        0.00000000
      14         -1.395455        2.000000        0.00000000        0.00000000        0.00000000        0.00000000
      15         -1.394362        2.000000        0.00000000        0.00000000        0.00000000        0.00000000
      16         -1.392846        2.000000        0.00000000        0.00000000        0.00000000        0.00000000
      17         -1.390897        2.000000        0.00000000        0.00000000        0.00000000        0.00000000
      18         -1.390061        2.000000        0.00000000        0.00000000        0.00000000        0.00000000
      19         -1.384185        2.000000        0.00000000        0.00000000        0.00000000        0.00000000
      20         -1.383199        2.000000        0.00000000        0.00000000        0.00000000        0.00000000
      21         -1.382301        2.000000        0.00000000        0.00000000        0.00000000        0.00000000
      22         -1.380921        2.000000        0.00000000        0.00000000        0.00000000        0.00000000
      23         -1.372884        2.000000        0.00000000        0.00000000        0.00000000        0.00000000
      24         -1.372658        2.000000        0.00000000        0.00000000        0.00000000        0.00000000
      25         -1.371821        2.000000        0.00000000        0.00000000        0.00000000        0.00000000
      26         -1.362487        2.000000        0.00000000        0.00000000        0.00000000        0.00000000
      27         -1.361453        2.000000        0.00000000        0.00000000        0.00000000        0.00000000
      28         -1.351215        2.000000        0.00000000        0.00000000        0.00000000        0.00000000
      29         -1.033406        2.000000        0.00000232        0.00000000        0.00000006        0.00000002
      30         -1.022023        2.000000        0.00000497        0.00000007        0.00000005        0.00000003
      31         -1.018246        2.000000        0.00000561        0.00000011        0.00000007        0.00000004
      32         -1.016258        2.000000        0.00000325        0.00000000        0.00000006        0.00000000
      33         -1.015703        2.000000        0.00023450        0.00000040        0.00000439        0.00000027
      34         -1.010749        2.000000        0.00003493        0.00000130        0.00000184        0.00000395
      35         -1.010455        2.000000        0.00130493        0.00001963        0.00003117        0.00001828
      36         -1.009872        2.000000        0.00004574        0.00000090        0.00000187        0.00000374
      37         -1.008414        2.000000        0.00003117        0.00000457        0.00001004        0.00005011
      38         -1.007886        2.000000        0.00002701        0.00000200        0.00000646        0.00002275
      39         -1.007019        2.000000        0.00070552        0.00002655        0.00001611        0.00000493
      40         -1.006198        2.000000        0.00016206        0.00000403        0.00000689        0.00000379
      41         -1.005190        2.000000        0.00000487        0.00000033        0.00000050        0.00000037
      42         -1.004605        2.000000        0.00000399        0.00000018        0.00000018        0.00000001
      43         -1.003488        2.000000        0.00001665        0.00000151        0.00000236        0.00000173
      44         -1.002632        2.000000        0.00000297        0.00000004        0.00000037        0.00000041
      45         -1.001664        2.000000        0.00007699        0.00004410        0.00002477        0.00006153
      46         -1.001087        2.000000        0.00222928        0.00015406        0.00026480        0.00009162
      47         -0.999865        2.000000        0.00013093        0.00001290        0.00001954        0.00001504
      48         -0.999449        2.000000        0.00104209        0.00001441        0.00008629        0.00000474
      49         -0.997868        2.000000        0.00587182        0.00331869        0.00239017        0.00674260
      50         -0.996723        2.000000        0.00137901        0.00142797        0.00067549        0.00353328
      51         -0.996512        2.000000        0.00058673        0.00023483        0.00005265        0.00076084
      52         -0.996282        2.000000        0.00255156        0.00017334        0.00034166        0.00035330
      53         -0.995999        2.000000        0.00008665        0.00000811        0.00001196        0.00002070
      54         -0.994331        2.000000        0.00001224        0.00000064        0.00000046        0.00000643
      55         -0.994188        2.000000        0.00008178        0.00001240        0.00001274        0.00000033
      56         -0.991912        2.000000        0.00000958        0.00000021        0.00000148        0.00000006
      57         -0.989936        2.000000        0.00005579        0.00001125        0.00000417        0.00000284
      58         -0.989656        2.000000        0.00011185        0.00004096        0.00003674        0.00002307
      59         -0.989467        2.000000        0.00020925        0.00003598        0.00004647        0.00004201
      60         -0.988633        2.000000        0.00013294        0.00008458        0.00001208        0.00004101
      61         -0.987637        2.000000        0.00017049        0.00000871        0.00003140        0.00001004
      62         -0.987412        2.000000        0.00007546        0.00000237        0.00000671        0.00000143
      63         -0.986130        2.000000        0.00032132        0.00001435        0.00002003        0.00004173
      64         -0.985717        2.000000        0.00001154        0.00000617        0.00000397        0.00000774
      65         -0.984469        2.000000        0.00018527        0.00001699        0.00000592        0.00017760
      66         -0.984291        2.000000        0.00001629        0.00000215        0.00000176        0.00000994
      67         -0.984253        2.000000        0.00007095        0.00000107        0.00000236        0.00002917
      68         -0.982990        2.000000        0.00003539        0.00002337        0.00000497        0.00004401
      69         -0.982080        2.000000        0.00017716        0.00000184        0.00000902        0.00002069
      70         -0.981614        2.000000        0.00007064        0.00000137        0.00000384        0.00001770
      71         -0.981186        2.000000        0.00203942        0.00011564        0.00011660        0.00072465
      72         -0.978944        2.000000        0.00010053        0.00000159        0.00000292        0.00005931
      73         -0.978551        2.000000        0.00007231        0.00000114        0.00000156        0.00004018
      74         -0.976116        2.000000        0.00011012        0.00001061        0.00001230        0.00007875
      75         -0.975869        2.000000        0.00039766        0.00001735        0.00009321        0.00017437
      76         -0.973879        2.000000        0.00000013        0.00000002        0.00000003        0.00000004
      77         -0.973186        2.000000        0.00000132        0.00000033        0.00000046        0.00000073
      78         -0.971994        2.000000        0.00000731        0.00000431        0.00000457        0.00000409
      79         -0.971578        2.000000        0.00000580        0.00000289        0.00000386        0.00000217
      80         -0.970769        2.000000        0.00260034        0.00085480        0.00047268        0.00511068
      81         -0.970679        2.000000        0.00193358        0.00035548        0.00014042        0.00412549
      82         -0.969626        2.000000        0.00075193        0.00028265        0.00055039        0.00037689
      83         -0.968464        2.000000        0.00059495        0.00009662        0.00000100        0.00088278
      84         -0.966367        2.000000        0.00931295        0.00098112        0.00548909        0.00131319
      85         -0.964815        2.000000        0.00111890        0.00051140        0.00062998        0.00040907
      86         -0.963526        2.000000        0.00037275        0.00012383        0.00023297        0.00014923
      87         -0.961938        2.000000        0.00030851        0.00016133        0.00015740        0.00014226
      88         -0.961538        2.000000        0.00024522        0.00014886        0.00012415        0.00012887
      89         -0.959316        2.000000        0.00362758        0.00522207        0.00083638        0.00096835
      90         -0.958982        2.000000        0.00520002        0.00024515        0.00081912        0.00173327
      91         -0.958467        2.000000        0.00076715        0.00004721        0.00041524        0.00060299
      92         -0.956601        2.000000        0.00584230        0.00455327        0.00061727        0.00073451
      93         -0.955415        2.000000        0.00409953        0.00152370        0.00209587        0.00174830
      94         -0.953167        2.000000        0.00000000        0.00000000        0.00000000        0.00000000
      95         -0.951871        2.000000        0.00218013        0.00394597        0.00430554        0.00065874
      96         -0.951134        2.000000        0.00001893        0.00002673        0.00003580        0.00000536
      97         -0.949052        2.000000        0.00877359        0.00405035        0.00339372        0.00217699
      98         -0.948272        2.000000        0.00620749        0.00659785        0.00505711        0.00033999
      99         -0.948070        2.000000        0.00323666        0.00657956        0.00751737        0.00232975
     100         -0.944290        2.000000        0.00107376        0.00042896        0.00009300        0.00039168
     101         -0.938098        2.000000        0.00158976        0.00314034        0.00010687        0.00410174
     102         -0.933435        2.000000        0.00514004        0.00302462        0.00364794        0.00633535
     103         -0.930680        2.000000        0.00347586        0.00801501        0.00043956        0.00142725
     104         -0.929731        2.000000        0.00104637        0.00061139        0.00003021        0.00186973
     105         -0.928263        2.000000        0.00181079        0.00069028        0.00079482        0.00108925
     106         -0.921389        2.000000        0.00159640        0.00111414        0.00084622        0.00108555
     107         -0.920461        2.000000        0.00083408        0.00281995        0.00025907        0.00139361
     108         -0.907102        2.000000        0.00175010        0.00052735        0.00028422        0.00455934
     109         -0.904458        2.000000        0.00052186        0.00002910        0.00002159        0.00064620
     110         -0.897530        2.000000        0.00041712        0.00000920        0.00000578        0.00007080
     111         -0.630097        2.000000        0.00000000        0.00000000        0.00000000        0.00000000
     112         -0.629735        2.000000        0.00000000        0.00000000        0.00000000        0.00000000
     113         -0.620888        2.000000        0.00000000        0.00000000        0.00000000        0.00000000
     114         -0.619616        2.000000        0.00000000        0.00000000        0.00000000        0.00000000
     115         -0.610175        2.000000        0.00000000        0.00000000        0.00000000        0.00000000
     116         -0.609900        2.000000        0.00000000        0.00000000        0.00000000        0.00000000
     117         -0.604350        2.000000        0.00000000        0.00000000        0.00000000        0.00000000
     118         -0.603666        2.000000        0.00000000        0.00000000        0.00000000        0.00000000
     119         -0.599052        2.000000        0.00000000        0.00000000        0.00000000        0.00000000
     120         -0.597291        2.000000        0.00000000        0.00000000        0.00000000        0.00000000
     121         -0.595787        2.000000        0.00000000        0.00000000        0.00000000        0.00000000
     122         -0.595577        2.000000        0.00000000        0.00000000        0.00000000        0.00000000
     123         -0.589686        2.000000        0.00000001        0.00000000        0.00000000        0.00000000
     124         -0.588067        2.000000        0.00000000        0.00000000        0.00000000        0.00000000
     125         -0.587040        2.000000        0.00000000        0.00000000        0.00000000        0.00000000
     126         -0.586783        2.000000        0.00000000        0.00000000        0.00000000        0.00000000
     127         -0.585024        2.000000        0.00000000        0.00000000        0.00000000        0.00000000
     128         -0.582206        2.000000        0.00000000        0.00000000        0.00000000        0.00000000
     129         -0.581704        2.000000        0.00000001        0.00000000        0.00000000        0.00000000
     130         -0.579700        2.000000        0.00000011        0.00000000        0.00000004        0.00000000
     131         -0.576345        2.000000        0.00008047        0.00000318        0.00001912        0.00000427
     132         -0.575097        2.000000        0.00000000        0.00000000        0.00000000        0.00000000
     133         -0.574195        2.000000        0.00000742        0.00000016        0.00000139        0.00000014
     134         -0.574076        2.000000        0.00000001        0.00000000        0.00000000        0.00000000
     135         -0.573719        2.000000        0.00000000        0.00000000        0.00000000        0.00000000
     136         -0.572600        2.000000        0.00000000        0.00000000        0.00000000        0.00000000
     137         -0.571922        2.000000        0.00000129        0.00000006        0.00000119        0.00000000
     138         -0.571688        2.000000        0.00000006        0.00000008        0.00000002        0.00000004
     139         -0.570147        2.000000        0.00000108        0.00000013        0.00000054        0.00000002
     140         -0.568860        2.000000        0.00000073        0.00000004        0.00000008        0.00000003
     141         -0.568269        2.000000        0.00000235        0.00000013        0.00000011        0.00000003
     142         -0.567013        2.000000        0.00000171        0.00000000        0.00000012        0.00000007
     143         -0.566385        2.000000        0.00000088        0.00000001        0.00000011        0.00000016
     144         -0.566235        2.000000        0.00000794        0.00000005        0.00000214        0.00000131
     145         -0.565350        2.000000        0.00000484        0.00000012        0.00000020        0.00000045
     146         -0.564999        2.000000        0.00000000        0.00000000        0.00000001        0.00000000
     147         -0.564774        2.000000        0.00000010        0.00000004        0.00000013        0.00000000
     148         -0.563444        2.000000        0.00000131        0.00000070        0.00000175        0.00000003
     149         -0.561937        2.000000        0.00000000        0.00000000        0.00000000        0.00000000
     150         -0.561849        2.000000        0.00000009        0.00000004        0.00000011        0.00000000
     151         -0.560941        2.000000        0.00003633        0.00001303        0.00003459        0.00000194
     152         -0.560014        2.000000        0.00001934        0.00000075        0.00000333        0.00000131
     153         -0.559815        2.000000        0.00000373        0.00000005        0.00000023        0.00000023
     154         -0.558835        2.000000        0.00003996        0.00000510        0.00000200        0.00000190
     155         -0.557274        2.000000        0.00001556        0.00000140        0.00001175        0.00000161
     156         -0.556897        2.000000        0.00000010        0.00000002        0.00000001        0.00000000
     157         -0.556466        2.000000        0.00000002        0.00000001        0.00000002        0.00000000
     158         -0.555620        2.000000        0.00000064        0.00000000        0.00000019        0.00000009
     159         -0.555004        2.000000        0.00000000        0.00000000        0.00000000        0.00000000
     160         -0.554668        2.000000        0.00000029        0.00000007        0.00000018        0.00000002
     161         -0.554171        2.000000        0.00000043        0.00000000        0.00000008        0.00000007
     162         -0.553544        2.000000        0.00000202        0.00000002        0.00000049        0.00000025
     163         -0.552398        2.000000        0.00001399        0.00000214        0.00000423        0.00000187
     164         -0.552243        2.000000        0.00000034        0.00000068        0.00000023        0.00000007
     165         -0.551277        2.000000        0.00000041        0.00000054        0.00000008        0.00000003
     166         -0.551156        2.000000        0.00000191        0.00000312        0.00000245        0.00000036
     167         -0.550635        2.000000        0.00000765        0.00000091        0.00001889        0.00000205
     168         -0.550291        2.000000        0.00004108        0.00002931        0.00000244        0.00000150
     169         -0.549981        2.000000        0.00000378        0.00000276        0.00000006        0.00000017
     170         -0.549723        2.000000        0.00000932        0.00000786        0.00000017        0.00000048
     171         -0.549385        2.000000        0.00001575        0.00000666        0.00004109        0.00000485
     172         -0.548796        2.000000        0.00001557        0.00000666        0.00000160        0.00000100
     173         -0.548016        2.000000        0.00020501        0.00033924        0.00006814        0.00027037
     174         -0.547668        2.000000        0.00013118        0.00002337        0.00036289        0.00003208
     175         -0.547105        2.000000        0.00000941        0.00000039        0.00003093        0.00000142
     176         -0.547015        2.000000        0.00000000        0.00000000        0.00000000        0.00000000
     177         -0.545115        2.000000        0.00050598        0.00002596        0.00175115        0.00012398
     178         -0.545003        2.000000        0.00000075        0.00000017        0.00000249        0.00000041
     179         -0.544650        2.000000        0.00001136        0.00000469        0.00001160        0.00000559
     180         -0.543541        2.000000        0.00022022        0.00001223        0.00045922        0.00005283
     181         -0.543136        2.000000        0.00003184        0.00000078        0.00009429        0.00000561
     182         -0.542434        2.000000        0.00000416        0.00000010        0.00001326        0.00000068
     183         -0.542241        2.000000        0.00007578        0.00000187        0.00024516        0.00001210
     184         -0.541866        2.000000        0.00002033        0.00000052        0.00006712        0.00000321
     185         -0.540879        2.000000        0.00005933        0.00000136        0.00018881        0.00000988
     186         -0.540788        2.000000        0.00000065        0.00000002        0.00000191        0.00000011
     187         -0.540115        2.000000        0.00011485        0.00000263        0.00036216        0.00002010
     188         -0.538798        2.000000        0.00000968        0.00000021        0.00003554        0.00000204
     189         -0.537140        2.000000        0.00010457        0.00000299        0.00000935        0.00001196
     190         -0.537022        2.000000        0.00000194        0.00000052        0.00000160        0.00000067
     191         -0.536850        2.000000        0.00003637        0.00000583        0.00001831        0.00000579
     192         -0.536423        2.000000        0.00000745        0.00000381        0.00001569        0.00000366
     193         -0.535904        2.000000        0.00000182        0.00000303        0.00000104        0.00000409
     194         -0.535649        2.000000        0.00000614        0.00001807        0.00000736        0.00002029
     195         -0.535344        2.000000        0.00005036        0.00015824        0.00016562        0.00016414
     196         -0.534360        2.000000        0.00000724        0.00000157        0.00002462        0.00000182
     197         -0.533714        2.000000        0.00000031        0.00000003        0.00000096        0.00000003
     198         -0.533655        2.000000        0.00000004        0.00000002        0.00000013        0.00000002
     199         -0.532811        2.000000        0.00003788        0.00000095        0.00005636        0.00001040
     200         -0.532427        2.000000        0.00011142        0.00000142        0.00017715        0.00004745
     201         -0.532332        2.000000        0.00002256        0.00000021        0.00003749        0.00001055
     202         -0.530043        2.000000        0.00000079        0.00000017        0.00000698        0.00000528
     203         -0.529841        2.000000        0.00001208        0.00000025        0.00000561        0.00000183
     204         -0.529799        2.000000        0.00000162        0.00000003        0.00000099        0.00000017
     205         -0.528556        2.000000        0.00001661        0.00000054        0.00004446        0.00000913
     206         -0.527596        2.000000        0.00000863        0.00001048        0.00000400        0.00005870
     207         -0.527483        2.000000        0.00005248        0.00006292        0.00003615        0.00036049
     208         -0.527250        2.000000        0.00000424        0.00000203        0.00000896        0.00001662
     209         -0.527216        2.000000        0.00001624        0.00000478        0.00004214        0.00004844
     210         -0.527049        2.000000        0.00000072        0.00000010        0.00000293        0.00000163
     211         -0.526471        2.000000        0.00000248        0.00000001        0.00001480        0.00000429
     212         -0.526072        2.000000        0.00000045        0.00000009        0.00000288        0.00000105
     213         -0.525666        2.000000        0.00001921        0.00000552        0.00001097        0.00002511
     214         -0.525408        2.000000        0.00018624        0.00007458        0.00009150        0.00026638
     215         -0.523245        2.000000        0.00000001        0.00000002        0.00000001        0.00000002
     216         -0.522882        2.000000        0.00000908        0.00001168        0.00000947        0.00001755
     217         -0.522510        2.000000        0.00000034        0.00000059        0.00000038        0.00000087
     218         -0.522067        2.000000        0.00000505        0.00001079        0.00000689        0.00001828
     219         -0.520870        2.000000        0.00001433        0.00000443        0.00000384        0.00005351
     220         -0.519322        2.000000        0.00003702        0.00001796        0.00002046        0.00002939
     221         -0.519278        2.000000        0.00000812        0.00000437        0.00000466        0.00000641
     222         -0.518104        2.000000        0.00079406        0.00038626        0.00003818        0.00087387
     223         -0.518063        2.000000        0.00011213        0.00005094        0.00000601        0.00012043
     224         -0.517312        2.000000        0.00000030        0.00000007        0.00000003        0.00000021
     225         -0.517184        2.000000        0.00000050        0.00000010        0.00000006        0.00000035
     226         -0.516925        2.000000        0.00000001        0.00000000        0.00000000        0.00000000
     227         -0.515314        2.000000        0.00026419        0.00118343        0.00038396        0.00041035
     228         -0.512655        2.000000        0.00000445        0.00000239        0.00000289        0.00000249
     229         -0.512145        2.000000        0.00000071        0.00000007        0.00000018        0.00000055
     230         -0.511909        2.000000        0.00019906        0.00000840        0.00003283        0.00020657
     231         -0.511767        2.000000        0.00045636        0.00012978        0.00091713        0.00015186
     232         -0.509515        2.000000        0.00000001        0.00000001        0.00000001        0.00000001
     233         -0.509381        2.000000        0.00000008        0.00000006        0.00000013        0.00000006
     234         -0.509094        2.000000        0.00015492        0.00009311        0.00022171        0.00010354
     235         -0.508002        2.000000        0.00145813        0.00060912        0.00101890        0.00083625
     236         -0.507140        2.000000        0.00000000        0.00000000        0.00000000        0.00000000
     237         -0.504824        2.000000        0.00045412        0.00026362        0.00028289        0.00036125
     238         -0.501994        2.000000        0.00068411        0.00018893        0.00071730        0.00101016
     239         -0.500813        2.000000        0.00000000        0.00000000        0.00000000        0.00000000
     240         -0.497839        2.000000        0.00009963        0.00057733        0.00012220        0.00000955
     241         -0.496829        2.000000        0.00000000        0.00000000        0.00000000        0.00000000
     242         -0.496409        2.000000        0.00178790        0.00022361        0.00063435        0.00228847
     243         -0.495362        2.000000        0.00000000        0.00000000        0.00000000        0.00000000
     244         -0.492682        2.000000        0.00056849        0.00039039        0.00030341        0.00038239
     245         -0.489549        2.000000        0.00014530        0.00118833        0.00047087        0.00007909
     246         -0.488590        2.000000        0.00000000        0.00000000        0.00000000        0.00000000
     247         -0.488316        2.000000        0.00000000        0.00000000        0.00000000        0.00000000
     248         -0.484619        2.000000        0.00038598        0.00066623        0.00094929        0.00053746
     249         -0.479434        2.000000        0.00008982        0.00030801        0.00063916        0.00122775
     250         -0.477513        2.000000        0.00072138        0.00079435        0.00025602        0.00024675
     251         -0.476523        2.000000        0.00000000        0.00000000        0.00000000        0.00000000
     252         -0.475795        2.000000        0.00072803        0.00027948        0.00095094        0.00132532
     253         -0.475468        2.000000        0.00000000        0.00000000        0.00000000        0.00000000
     254         -0.473864        2.000000        0.00060357        0.00035094        0.00185916        0.00003636
     255         -0.471181        2.000000        0.00040798        0.00042611        0.00026698        0.00117159
     256         -0.469995        2.000000        0.00000000        0.00000000        0.00000000        0.00000000
     257         -0.468669        2.000000        0.00000000        0.00000000        0.00000000        0.00000000
     258         -0.468362        2.000000        0.00016144        0.00000433        0.00001983        0.00003770
     259         -0.468265        2.000000        0.00022119        0.00000973        0.00004765        0.00004527