# energy total_dos
-47.378467616839316	10.000000100000001
-46.901531062998274	0.0
-46.42459450915723	9.9999999
-45.94765795531619	9.999999899999999
-45.470721401475146	0.0
-44.993784847634096	0.0
-44.51684829379305	0.0
-44.03991173995201	0.0
-43.56297518611097	0.0
-43.086038632269926	0.0
-42.60910207842888	0.0
-42.13216552458784	0.0
-41.6552289707468	0.0
-41.178292416905755	0.0
-40.701355863064705	0.0
-40.22441930922366	0.0
-39.74748275538262	0.0
-39.27054620154158	0.0
-38.793609647700535	0.0
-38.31667309385949	0.0
-37.83973654001845	0.0
-37.3627999861774	0.0
-36.88586343233636	0.0
-36.408926878495315	0.0
-35.93199032465427	9.999999899999999
-35.45505377081323	50.0
-34.97811721697219	49.99999989999999
-34.501180663131144	80.0000005
-34.0242441092901	50.0000001
-33.54730755544906	10.0000001
-33.07037100160802	0.0
-32.59343444776697	0.0
-32.116497893925924	0.0
-31.63956134008488	0.0
-31.16262478624384	0.0
-30.685688232402796	0.0
-30.208751678561754	0.0
-29.731815124720704	0.0
-29.25487857087966	0.0
-28.77794201703862	0.0
-28.301005463197576	0.0
-27.824068909356534	0.0
-27.34713235551549	0.0
-26.87019580167445	0.0
-26.393259247833406	0.0
-25.916322693992356	0.0
-25.439386140151313	0.0
-24.96244958631027	10.0
-24.48551303246923	69.99999940000001
-24.008576478628186	199.9999994
-23.531639924787143	190.0000014
-23.0547033709461	159.99999939999998
-22.577766817105058	90.0000001
-22.100830263264015	50.00000020000001
-21.623893709422966	39.999999900000006
-21.146957155581923	9.999999999999998
-20.67002060174088	0.0
-20.193084047899838	0.0
-19.716147494058795	0.0
-19.239210940217752	0.0
-18.76227438637671	0.0
-18.285337832535667	0.0
-17.808401278694618	0.0
-17.331464724853575	0.0
-16.854528171012532	0.0
-16.37759161717149	0.0
-15.900655063330449	0.0
-15.423718509489403	0.0
-14.94678195564836	0.0
-14.469845401807317	0.0
-13.992908847966275	20.0000002
-13.515972294125232	40.000000099999994
-13.03903574028419	69.99999989999999
-12.56209918644314	149.9999988
-12.085162632602097	239.99999939999995
-11.608226078761055	299.9999998999999
-11.131289524920012	289.99999909999997
-10.65435297107897	170.0000001
-10.177416417237927	100.00000009999998
-9.700479863396884	129.9999997
-9.223543309555842	169.99999970000002
-8.746606755714799	130.00000070000002
-8.26967020187375	159.99999979999998
-7.792733648032707	190.0000002
-7.315797094191664	209.99999979999993
-6.8388605403506215	249.99999969999996
-6.361923986509579	330.0000002
-5.884987432668536	549.9999997
-5.408050878827494	399.99999920000005
-4.931114324986451	310.0000004
-4.454177771145402	419.99999999999994
-3.9772412173043596	300.0000005
-3.500304663463317	340.00000030000007
-3.0233681096222744	289.9999997
-2.546431555781232	469.9999982000001
-2.069495001940189	300.0000014
-1.5925584480991466	289.99999879999996
-1.115621894258104	279.99999899999995
-0.6386853404170614	319.99999959999997
-0.16174878657601166	199.9999998
0.31518776726503095	110.0000001
0.7921243211060736	50.000000199999995
1.2690608749471162	39.9999999
1.745997428788159	70.00000010000001
2.2229339826292014	139.9999996
2.699870536470244	80.00000080000001
3.1768070903112866	159.9999996
3.6537436441523363	119.9999995
4.130680197993379	159.9999996
4.6076167518344215	130.0000003
5.084553305675464	150.00000029999998
5.561489859516507	139.99999929999998
6.038426413357549	159.99999889999998
6.515362967198592	160.000001
6.992299521039635	220.0000002
7.469236074880677	240.0000001
7.946172628721727	240.0000004
8.423109182562769	249.9999985
8.900045736403811	219.9999995
9.376982290244854	260.00000009999997
9.853918844085896	209.99999910000003
10.330855397926939	260.0000009
10.807791951767982	230.00000139999995
11.284728505609024	209.99999889999998
11.761665059450076	229.9999998
12.238601613291118	220.0000006
12.715538167132161	160.0
13.192474720973204	149.9999999
13.669411274814246	179.99999950000003
14.146347828655289	159.99999999999997
14.623284382496331	190.00000010000002
15.100220936337374	229.999999
15.577157490178417	250.0
16.054094044019465	219.99999979999996
16.531030597860507	160.00000160000002
17.00796715170155	199.99999789999998
17.484903705542592	140.0000002
17.961840259383635	139.99999819999996
18.438776813224678	209.9999999
18.91571336706572	140.00000019999996
19.392649920906763	140.0000001
19.869586474747805	159.99999949999997
20.346523028588848	149.9999997
20.82345958242989	150.00000029999998
21.300396136270933	179.9999983
21.777332690111976	149.99999859999997
22.254269243953033	149.99999989999998
22.731205797794075	140.00000029999998
23.208142351635118	139.99999989999998
23.68507890547616	200.00000039999998
24.162015459317203	179.9999993
24.638952013158246	190.00000149999997
25.11588856699929	210.0000009
25.59282512084033	199.99999849999998
26.069761674681374	169.99999909999997
26.546698228522416	140.00000100000003
27.02363478236346	160.0000001
27.5005713362045	160.0000012
27.977507890045544	139.9999995
28.454444443886587	139.9999995
28.93138099772763	150.0000002
29.408317551568672	190.0000001
29.885254105409714	159.9999998
30.36219065925077	140.00000029999998
30.839127213091814	169.9999999
31.316063766932857	149.99999949999997
31.7930003207739	149.99999899999997
32.26993687461494	140.0000009
32.746873428455984	170.00000109999996
33.22380998229703	169.9999998
33.70074653613807	159.99999889999998
34.17768308997911	139.99999919999996
34.654619643820155	159.9999995
35.1315561976612	150.0
35.60849275150224	160.00000150000002
36.08542930534328	150.0000009
36.562365859184325	149.9999998
37.03930241302537	139.9999995
37.51623896686641	159.9999997
37.99317552070745	129.9999997
38.47011207454851	160.0000009
38.94704862838955	159.9999997
39.423985182230595	159.9999997
39.90092173607164	119.9999994
40.37785828991268	150.0000003
40.85479484375372	99.9999998
41.331731397594766	100.0000001
41.80866795143581	139.9999999
42.28560450527685	129.99999989999998
42.76254105911789	120.00000069999999
43.239477612958936	89.9999994
43.71641416679998	149.99999979999996
44.19335072064102	130.00000029999998
44.670287274482064	120.0
45.147223828323106	100.00000059999999
45.62416038216415	149.9999986
46.10109693600519	120.00000069999999
46.57803348984625	119.99999979999998
47.05497004368729	130.0000007
47.531906597528334	109.99999869999999
48.008843151369376	99.99999989999999
48.48577970521042	100.00000049999998
48.96271625905146	119.9999997
49.439652812892504	110.00000009999998
49.91658936673355	90.0000012
50.39352592057459	119.99999989999999
50.87046247441563	120.00000019999999
51.347399028256675	100.0
51.82433558209772	110.00000039999999
52.30127213593876	110.00000130000001
52.7782086897798	190.0000005
53.255145243620845	200.0000005
53.73208179746189	179.99999999999997
54.20901835130293	139.99999989999998
54.68595490514399	129.9999998
55.16289145898503	150.0000014
55.63982801282607	140.00000029999998
56.116764566667115	130.00000029999998
56.59370112050816	150.0000001
57.0706376743492	120.00000039999999
57.54757422819024	119.99999969999999
58.024510782031285	140.0000008
58.50144733587233	140.00000020000002
58.97838388971337	119.9999995
59.45532044355441	109.99999970000002
59.932256997395456	140.00000109999996
60.4091935512365	139.99999939999998
60.88613010507754	130.00000039999998
61.363066658918584	130.0000004
61.840003212759626	120.0
62.31693976660067	119.99999919999998
62.793876320441726	129.9999997
63.27081287428277	139.99999889999998
63.74774942812381	89.99999970000002
64.22468598196485	109.99999940000001
64.7016225358059	109.9999998
65.17855908964694	109.99999930000001
65.65549564348798	99.99999919999999
66.13243219732902	80.0000005
66.60936875117007	89.99999969999999
67.08630530501111	80.0000007
67.56324185885214	80.00000039999998
68.0401784126932	100.00000010000001
68.51711496653422	80.0
68.99405152037528	89.9999993
69.47098807421631	99.99999999999999
69.94792462805736	99.99999940000001
70.4248611818984	79.9999995
70.90179773573945	79.99999919999998
71.3787342895805	80.00000010000001
71.85567084342154	59.9999997
72.33260739726259	70.00000080000001
72.80954395110362	69.99999940000001
73.28648050494468	90.0000004
73.7634170587857	59.99999959999999
74.24035361262676	59.999999900000006
74.71729016646779	59.99999989999999
75.19422672030885	60.000000099999994
75.67116327414988	70.0
76.14809982799093	39.99999989999999
76.62503638183196	39.9999999
77.10197293567302	50.0000002
77.57890948951405	40.0
78.0558460433551	50.00000000000001
78.53278259719613	40.0000005
79.00971915103719	40.0
79.48665570487825	50.00000039999999
79.96359225871927	40.0000004
80.44052881256033	20.0
80.91746536640136	50.000000099999994
81.39440192024242	50.000000799999995
81.87133847408344	49.9999994
82.3482750279245	29.999999799999998
82.82521158176553	50.0000005
83.30214813560659	39.99999939999999
83.77908468944764	20.0000004
84.25602124328867	39.9999998
84.73295779712973	39.999999900000006
85.20989435097076	39.99999999999999
85.68683090481181	39.99999999999999
86.16376745865284	30.000000099999998
86.6407040124939	40.000000099999994
87.11764056633493	40.000000199999995
87.59457712017598	39.9999999
88.07151367401701	20.0
88.54845022785807	59.999999100000004
89.0253867816991	40.000000099999994
89.50232333554015	29.9999999
89.97925988938118	30.000000199999995
90.45619644322224	9.999999800000001
90.93313299706327	39.9999999
91.41006955090432	40.0000003
91.88700610474538	39.9999998
92.36394265858641	30.000000299999996
92.84087921242747	39.9999995
93.3178157662685	20.0
93.79475232010955	10.000000199999997
94.27168887395058	20.000000099999998
94.74862542779164	9.9999997
95.22556198163267	40.00000029999999
95.70249853547372	19.999999700000004
96.17943508931475	9.999999700000002
96.65637164315581	39.9999996
97.13330819699684	39.999999800000005
97.6102447508379	30.000000599999996
98.08718130467892	40.0000001
98.56411785851998	30.0
99.041054412361	10.000000199999999
99.51799096620206	9.999999799999998
99.99492752004312	10.000000100000001
100.47186407388415	29.9999997
100.9488006277252	19.9999998
101.42573718156623	9.999999800000001
101.90267373540729	29.999999899999995
102.37961028924832	9.999999999999998
102.85654684308938	19.9999994
103.3334833969304	39.9999998
103.81041995077146	19.9999999
104.28735650461249	29.999999199999998
104.76429305845355	19.999999899999995
105.24122961229457	19.999999899999995
105.71816616613563	29.9999996
106.19510271997666	19.999999999999996
106.67203927381772	9.999999899999999
107.14897582765875	19.9999999
107.6259123814998	29.9999994
108.10284893534086	10.0000001
108.57978548918189	9.9999999
109.05672204302294	10.0000003
109.53365859686397	19.9999999
110.01059515070503	9.999999999999998
110.48753170454606	29.999999499999998
110.96446825838711	39.9999996
111.44140481222814	29.999999799999998
111.9183413660692	9.9999999
112.39527791991023	9.9999999
112.87221447375128	29.9999997
113.34915102759231	9.9999998
113.82608758143337	19.9999997
114.3030241352744	29.9999993
114.77996068911546	19.999999899999995
115.25689724295648	29.999999999999996
115.73383379679754	9.999999999999998
116.2107703506386	19.9999999
116.68770690447963	10.0000002
117.16464345832068	39.9999999
117.64158001216171	19.9999997
118.11851656600277	29.999999900000002
118.5954531198438	19.9999997
119.07238967368485	19.999999699999996
119.54932622752588	9.9999998
120.02626278136694	9.999999999999998
120.50319933520797	20.000000099999998
120.98013588904902	0.0
121.45707244289005	29.999999699999993
121.93400899673111	29.999999899999995
122.41094555057214	10.000000100000001
122.8878821044132	20.0
123.36481865825422	0.0
123.84175521209528	0.0
124.31869176593634	19.999999699999996
124.79562831977736	19.9999999
125.27256487361842	19.9999995
125.74950142745945	29.999999799999994
126.2264379813005	29.999999899999995
126.70337453514153	20.000000099999998
127.18031108898259	20.000000300000004
127.65724764282362	40.0000001
128.13418419666468	29.999999900000002
128.6111207505057	9.9999997
129.08805730434676	20.0000001
129.5649938581878	9.9999998
130.04193041202885	29.999999799999998
130.51886696586988	29.9999999
130.99580351971093	20.0000002
131.472740073552	19.9999996
131.94967662739305	30.0000001
132.4266131812341	40.0000007
132.90354973507513	20.0000002
133.3804862889162	39.99999989999999
133.85742284275722	50.000000299999996
134.33435939659827	19.999999999999996
134.8112959504393	19.999999899999995
135.28823250428036	40.0
135.7651690581214	19.999999899999995
136.24210561196244	19.999999699999996
136.71904216580347	20.0000004
137.19597871964453	30.000000499999995
137.67291527348556	50.000000199999995
138.14985182732661	30.0000005
138.62678838116764	40.00000049999999
139.1037249350087	59.999999900000006
139.58066148884973	69.9999994
140.05759804269078	49.99999999999999
140.53453459653184	70.0000006
141.01147115037287	40.000000199999995
141.48840770421393	60.0
141.96534425805496	50.000000199999995
142.442280811896	50.0000001
142.91921736573704	60.000000199999995
143.3961539195781	49.9999998
143.87309047341913	69.99999969999999
144.35002702726018	39.99999969999999
144.8269635811012	49.99999999999999
145.30390013494227	50.0000004
145.7808366887833	39.9999999
146.25777324262435	70.00000080000001
146.73470979646538	50.0000002
147.21164635030644	59.999999299999985
147.68858290414747	70.0000001
148.16551945798852	29.999999799999998
148.64245601182958	60.000000299999996
149.1193925656706	80.00000039999999
149.59632911951167	39.9999995
150.0732656733527	30.000000299999996
150.55020222719375	39.999999499999994
151.02713878103478	50.0000001
151.50407533487584	39.999999900000006
151.98101188871686	50.00000059999999
152.45794844255792	39.9999999
152.93488499639895	40.0000004
153.41182155024	60.00000029999999
153.88875810408103	40.0000001
154.3656946579221	49.99999969999999
154.84263121176312	40.000000199999995
155.31956776560418	10.000000099999998
155.7965043194452	39.99999979999999
156.27344087328626	20.000000199999995
156.75037742712732	20.000000299999996
157.22731398096835	29.9999999
157.7042505348094	0.0
158.18118708865043	20.000000099999998
158.6581236424915	20.000000099999998
159.13506019633252	0.0
159.61199675017357	19.999999799999998
160.0889333040146	20.0
160.56586985785566	10.000000199999999
161.0428064116967	20.0
161.51974296553774	9.999999999999998
161.99667951937877	29.999999799999994
162.47361607321983	9.999999999999998
162.95055262706086	10.0000003
163.42748918090192	0.0
163.90442573474294	20.000000200000002
164.381362288584	0.0
164.85829884242506	9.9999998
165.33523539626609	10.000000199999999
165.81217195010714	20.000000099999998
166.28910850394817	10.0
166.76604505778923	10.000000099999998
167.24298161163026	0.0
167.7199181654713	10.0000001
168.19685471931234	0.0
168.6737912731534	10.0000002
169.15072782699443	10.0
169.62766438083548	19.999999900000002
170.1046009346765	0.0
170.58153748851757	10.0
171.0584740423586	9.999999899999999
171.53541059619965	9.9999999
172.01234715004068	0.0
172.48928370388174	0.0
172.9662202577228	10.0
173.44315681156382	20.0000003
173.92009336540488	0.0
174.3970299192459	0.0
174.87396647308697	20.0000001
175.350903026928	0.0
175.82783958076905	0.0
176.30477613461008	10.0000001
176.78171268845114	0.0
177.25864924229217	0.0
177.73558579613322	0.0
178.21252234997425	10.0
178.6894589038153	9.999999799999998
179.16639545765634	0.0
179.6433320114974	0.0
180.12026856533842	0.0
180.59720511917948	0.0
181.07414167302053	0.0
181.55107822686156	10.000000400000001
182.02801478070262	19.999999900000002
182.50495133454365	0.0
182.9818878883847	0.0
183.45882444222573	0.0
183.9357609960668	9.999999799999998
184.41269754990782	0.0
184.88963410374888	19.9999998
185.3665706575899	0.0
185.84350721143096	10.0000001
186.320443765272	9.999999999999998
186.79738031911305	10.0
187.27431687295407	0.0
187.75125342679513	9.9999999
188.22818998063616	0.0
188.70512653447722	0.0
189.18206308831827	10.000000299999998
189.6589996421593	0.0
190.13593619600036	10.0
190.6128727498414	0.0
191.08980930368244	9.999999999999998
191.56674585752347	0.0
192.04368241136453	9.9999998
192.52061896520556	0.0
192.9975555190466	0.0
193.47449207288764	10.000000299999998
193.9514286267287	0.0
194.42836518056973	0.0
194.90530173441078	0.0
195.3822382882518	9.999999899999999
195.85917484209287	0.0
196.3361113959339	10.0
196.81304794977495	0.0
197.289984503616	0.0
197.76692105745704	0.0
198.2438576112981	10.0000001
198.72079416513913	0.0
199.19773071898018	10.000000199999999
199.6746672728212	0.0
200.15160382666227	0.0
200.6285403805033	40.00000009999999
201.10547693434435	20.0000004
201.58241348818538	9.999999899999999
202.05935004202644	0.0
202.53628659586747	0.0
203.01322314970852	0.0
203.49015970354955	0.0
203.9670962573906	0.0
204.44403281123164	0.0
204.9209693650727	0.0
205.39790591891375	0.0
205.87484247275478	0.0
206.35177902659584	0.0
206.82871558043686	0.0
207.30565213427792	0.0
207.78258868811895	10.0000003
208.25952524196	10.0000002
208.73646179580103	0.0
209.21339834964206	10.0000001
209.69033490348315	9.9999999
210.16727145732418	9.999999999999998
210.6442080111652	10.000000199999997
211.12114456500623	0.0
211.59808111884732	0.0
212.07501767268835	0.0
212.55195422652938	10.000000199999999
213.0288907803704	0.0
213.5058273342115	10.0000001
213.98276388805252	0.0
214.45970044189355	19.999999899999995
214.93663699573463	9.9999997
215.41357354957566	0.0
215.8905101034167	0.0
216.36744665725772	0.0
216.8443832110988	0.0
217.32131976493983	0.0
217.79825631878086	0.0
218.2751928726219	0.0
218.75212942646297	9.999999999999998
219.229065980304	0.0
219.70600253414503	0.0
220.18293908798606	10.0000001
220.65987564182714	0.0
221.13681219566817	0.0
221.6137487495092	9.999999899999999
222.09068530335028	0.0
222.5676218571913	0.0
223.04455841103234	19.9999999
223.52149496487337	0.0
223.99843151871445	0.0
224.47536807255548	0.0
224.9523046263965	9.999999999999998
225.42924118023754	9.9999998
225.90617773407863	0.0
226.38311428791965	20.0000002
226.86005084176068	10.0
227.3369873956017	9.999999800000001
227.8139239494428	0.0
228.29086050328382	0.0
228.76779705712485	9.999999899999999
229.24473361096588	0.0
229.72167016480697	0.0
230.198606718648	9.999999799999998
230.67554327248902	0.0
231.1524798263301	0.0
231.62941638017114	9.999999899999999
232.10635293401216	10.000000100000001
232.5832894878532	0.0
233.06022604169428	10.0
233.5371625955353	0.0
234.01409914937634	0.0
234.49103570321736	0.0
234.96797225705845	10.0
235.44490881089948	10.0000001
235.9218453647405	0.0
236.39878191858153	9.999999999999998
236.87571847242262	9.999999899999999
237.35265502626365	0.0
237.82959158010468	9.999999899999999
238.30652813394576	10.000000099999998
238.7834646877868	0.0
239.26040124162782	0.0
239.73733779546885	0.0
240.21427434930993	9.999999999999998
240.69121090315096	0.0
241.168147456992	0.0
241.64508401083302	10.000000100000001
242.1220205646741	10.000000100000001
242.59895711851513	0.0
243.07589367235616	9.9999997
243.5528302261972	0.0
244.02976678003827	0.0
244.5067033338793	10.0000002
244.98363988772033	9.999999899999999
245.46057644156136	10.000000000000002
245.93751299540244	0.0
246.41444954924347	0.0
246.8913861030845	0.0
247.36832265692559	0.0
247.8452592107666	0.0
248.32219576460764	0.0
248.79913231844867	0.0
249.27606887228976	0.0
249.75300542613078	0.0
250.2299419799718	0.0
250.70687853381284	0.0
251.18381508765393	0.0
251.66075164149495	9.999999999999998
252.13768819533598	9.9999998
252.614624749177	0.0
253.0915613030181	9.999999800000001
253.56849785685912	0.0
254.04543441070015	0.0
254.52237096454124	0.0
254.99930751838227	10.0
255.4762440722233	0.0
255.95318062606432	9.999999999999998
256.4301171799054	0.0
256.9070537337464	0.0
257.38399028758744	10.000000099999998
257.86092684142847	0.0
258.33786339526955	10.000000199999999
258.8147999491106	10.0000001
259.2917365029516	10.0000001
259.76867305679264	0.0
260.2456096106337	0.0
260.72254616447475	10.000000099999998
261.1994827183158	9.999999999999998
261.6764192721568	0.0
262.1533558259979	10.000000000000002
262.6302923798389	19.9999996
263.10722893367995	0.0
263.58416548752103	9.999999999999998
264.06110204136206	0.0
264.5380385952031	10.000000100000001
265.0149751490441	0.0
265.4919117028852	0.0
265.96884825672623	9.999999899999997
266.44578481056726	10.000000000000002
266.9227213644083	10.000000199999999
267.3996579182494	0.0
267.8765944720904	0.0
268.35353102593143	0.0
268.83046757977246	9.9999999
269.30740413361355	10.0000002
269.7843406874546	0.0
270.2612772412956	0.0
270.7382137951367	0.0
271.2151503489777	10.0
271.69208690281874	10.000000199999999
272.1690234566598	0.0
272.64596001050086	0.0
273.1228965643419	10.000000100000001
273.5998331181829	0.0
274.07676967202394	0.0
274.553706225865	0.0
275.03064277970606	0.0
275.5075793335471	10.000000199999999
275.9845158873881	0.0
276.4614524412292	10.0
276.9383889950702	0.0
277.41532554891126	10.0000003
277.8922621027523	0.0
278.36919865659337	0.0
278.8461352104344	10.0
279.3230717642754	0.0
279.8000083181165	0.0
280.27694487195754	9.999999999999998
280.75388142579857	0.0
281.2308179796396	9.999999899999999
281.7077545334807	0.0
282.1846910873217	0.0
282.66162764116274	0.0
283.13856419500377	0.0
283.61550074884485	10.0000001
284.0924373026859	0.0
284.5693738565269	10.0
285.04631041036794	10.000000199999999
285.523246964209	9.9999998
286.00018351805005	0.0
286.4771200718911	9.999999899999999
286.95405662573216	0.0
287.4309931795732	10.000000099999998
287.9079297334142	0.0
288.38486628725525	0.0
288.86180284109633	9.999999800000001
289.33873939493736	9.999999999999998
289.8156759487784	20.000000199999995
290.2926125026194	0.0
290.7695490564605	19.999999900000002
291.24648561030153	0.0
291.72342216414256	10.000000199999997
292.2003587179836	0.0
292.6772952718247	9.9999999
293.1542318256657	19.999999799999998
293.63116837950673	10.0
294.10810493334776	0.0
294.58504148718885	9.999999900000002
295.0619780410299	0.0
295.5389145948709	10.0000001
296.015851148712	0.0
296.492787702553	10.0000001
296.96972425639404	0.0
297.4466608102351	10.0
297.92359736407616	10.0000003
298.4005339179172	10.0000001
298.8774704717582	0.0
299.35440702559924	0.0
299.83134357944033	9.9999998
300.30828013328136	9.999999999999998
300.7852166871224	0.0
301.2621532409634	9.999999800000001
301.7390897948045	19.999999999999996
302.2160263486455	0.0
302.69296290248656	9.999999899999999
303.16989945632764	0.0
303.64683601016867	20.0000003
304.1237725640097	0.0
304.6007091178507	9.999999999999998
305.0776456716918	9.9999999
305.55458222553284	0.0
306.03151877937387	0.0
306.5084553332149	0.0
306.985391887056	0.0
307.462328440897	9.9999998
307.93926499473804	0.0
308.41620154857907	0.0
308.89313810242015	10.0
309.3700746562612	0.0
309.8470112101022	0.0
310.32394776394324	0.0
310.8008843177843	0.0
311.27782087162535	10.0000001
311.7547574254664	0.0
312.23169397930747	9.999999999999998
312.7086305331485	0.0
313.1855670869895	10.0
313.66250364083055	0.0
314.13944019467164	0.0
314.61637674851266	10.0
315.0933133023537	9.999999999999998
315.5702498561947	9.999999899999999
316.0471864100358	9.999999999999998
316.52412296387683	9.9999997
317.00105951771786	9.9999998
317.4779960715589	0.0
317.9549326254	9.9999999
318.431869179241	10.000000199999999
318.90880573308203	0.0
319.3857422869231	10.0000001
319.86267884076415	9.999999899999999
320.3396153946052	10.0000001
320.8165519484462	0.0
321.2934885022873	0.0
321.7704250561283	0.0
322.24736160996935	0.0
322.7242981638104	0.0
323.20123471765146	20.0
323.6781712714925	0.0
324.1551078253335	9.999999999999998
324.63204437917454	9.999999800000001
325.10898093301563	0.0
325.58591748685666	0.0
326.0628540406977	0.0
326.5397905945387	9.9999997
327.0167271483798	0.0
327.49366370222083	9.999999899999999
327.97060025606186	0.0
328.44753680990294	10.000000100000001
328.92447336374397	10.0000001
329.401409917585	0.0
329.878346471426	0.0
330.3552830252671	9.999999899999999
330.83221957910814	0.0
331.30915613294917	0.0
331.7860926867902	10.000000499999999
332.2630292406313	0.0
332.7399657944723	0.0
333.21690234831334	0.0
333.69383890215437	0.0
334.17077545599545	0.0
334.6477120098365	0.0
335.1246485636775	0.0
335.6015851175186	10.0
336.0785216713596	0.0
336.55545822520065	0.0
337.0323947790417	9.9999999
337.50933133288277	0.0
337.9862678867238	0.0
338.4632044405648	0.0
338.94014099440585	10.0000002
339.41707754824694	0.0
339.89401410208797	9.9999998
340.370950655929	0.0
340.84788720977	0.0
341.3248237636111	0.0
341.80176031745214	0.0
342.27869687129316	0.0
342.7556334251342	0.0
343.2325699789753	0.0
343.7095065328163	0.0
344.18644308665733	0.0
344.6633796404984	9.999999899999999
345.14031619433945	9.999999899999999
345.6172527481805	0.0
346.0941893020215	0.0
346.5711258558626	0.0
347.0480624097036	0.0
347.52499896354465	0.0
348.0019355173857	9.9999997
348.47887207122676	0.0
348.9558086250678	0.0
349.4327451789088	0.0
349.90968173274985	0.0
350.38661828659093	0.0
350.86355484043196	0.0
351.340491394273	0.0
351.8174279481141	0.0
352.2943645019551	10.000000099999998
352.77130105579613	0.0
353.24823760963716	0.0
353.72517416347824	0.0
354.2021107173193	0.0
354.6790472711603	0.0
355.15598382500133	0.0
355.6329203788424	0.0
356.10985693268344	0.0
356.58679348652447	0.0
357.0637300403655	0.0
357.5406665942066	0.0
358.0176031480476	0.0
358.49453970188864	0.0
358.97147625572967	0.0
359.44841280957075	0.0
359.9253493634118	0.0
360.4022859172528	0.0
360.8792224710939	0.0
361.3561590249349	0.0
361.83309557877595	0.0
362.310032132617	0.0
362.78696868645807	0.0
363.2639052402991	0.0
363.7408417941401	10.0000001
364.21777834798115	0.0
364.69471490182224	0.0
365.17165145566327	0.0
365.6485880095043	0.0
366.1255245633453	0.0
366.6024611171864	0.0
367.07939767102744	0.0
367.55633422486846	0.0
368.03327077870955	0.0
368.5102073325506	10.000000000000002
