# energy total s py pz px
-47.378467616839316	0.1124497	0.0417905	0.014741999999999998	0.0249081	0.0310091
-46.901531062998274	0.0	0.0	0.0	0.0	0.0
-46.42459450915723	0.1035042	0.03767379999999999	0.025659099999999997	0.0222988	0.0178725
-45.94765795531619	0.0934777	0.0353207	0.0187484	0.0158793	0.0235293
-45.470721401475146	0.0	0.0	0.0	0.0	0.0
-44.993784847634096	0.0	0.0	0.0	0.0	0.0
-44.51684829379305	0.0	0.0	0.0	0.0	0.0
-44.03991173995201	0.0	0.0	0.0	0.0	0.0
-43.56297518611097	0.0	0.0	0.0	0.0	0.0
-43.086038632269926	0.0	0.0	0.0	0.0	0.0
-42.60910207842888	0.0	0.0	0.0	0.0	0.0
-42.13216552458784	0.0	0.0	0.0	0.0	0.0
-41.6552289707468	0.0	0.0	0.0	0.0	0.0
-41.178292416905755	0.0	0.0	0.0	0.0	0.0
-40.701355863064705	0.0	0.0	0.0	0.0	0.0
-40.22441930922366	0.0	0.0	0.0	0.0	0.0
-39.74748275538262	0.0	0.0	0.0	0.0	0.0
-39.27054620154158	0.0	0.0	0.0	0.0	0.0
-38.793609647700535	0.0	0.0	0.0	0.0	0.0
-38.31667309385949	0.0	0.0	0.0	0.0	0.0
-37.83973654001845	0.0	0.0	0.0	0.0	0.0
-37.3627999861774	0.0	0.0	0.0	0.0	0.0
-36.88586343233636	0.0	0.0	0.0	0.0	0.0
-36.408926878495315	0.0	0.0	0.0	0.0	0.0
-35.93199032465427	0.05965429999999999	0.011976999999999998	0.000794	0.0461037	0.0007796
-35.45505377081323	0.141446	0.0245806	0.0072533	0.102359	0.0072531
-34.97811721697219	0.0384816	0.005479499999999999	0.0035597	0.0254621	0.0039803
-34.501180663131144	0.016584099999999997	0.0026623999999999992	0.0017473000000000002	0.0103582	0.0018162
-34.0242441092901	0.0031067999999999994	0.000452	0.0004732	0.0015011	0.0006805
-33.54730755544906	0.0002788	3.2699999999999995e-05	1.3e-05	9.929999999999999e-05	0.0001338
-33.07037100160802	0.0	0.0	0.0	0.0	0.0
-32.59343444776697	0.0	0.0	0.0	0.0	0.0
-32.116497893925924	0.0	0.0	0.0	0.0	0.0
-31.63956134008488	0.0	0.0	0.0	0.0	0.0
-31.16262478624384	0.0	0.0	0.0	0.0	0.0
-30.685688232402796	0.0	0.0	0.0	0.0	0.0
-30.208751678561754	0.0	0.0	0.0	0.0	0.0
-29.731815124720704	0.0	0.0	0.0	0.0	0.0
-29.25487857087966	0.0	0.0	0.0	0.0	0.0
-28.77794201703862	0.0	0.0	0.0	0.0	0.0
-28.301005463197576	0.0	0.0	0.0	0.0	0.0
-27.824068909356534	0.0	0.0	0.0	0.0	0.0
-27.34713235551549	0.0	0.0	0.0	0.0	0.0
-26.87019580167445	0.0	0.0	0.0	0.0	0.0
-26.393259247833406	0.0	0.0	0.0	0.0	0.0
-25.916322693992356	0.0	0.0	0.0	0.0	0.0
-25.439386140151313	0.0	0.0	0.0	0.0	0.0
-24.96244958631027	3.9416563000000004	2.2004042999999998	0.2179942	0.5168085	1.0064492999999999
-24.48551303246923	27.051633499999998	15.819867999999998	3.3991645999999998	4.339007	3.4935938999999996
-24.008576478628186	78.09269359999999	41.7670876	12.143633800000002	10.428692400000001	13.7532798
-23.531639924787143	74.7424681	38.1222362	11.7794262	12.4423817	12.398424
-23.0547033709461	62.908259799999996	30.1946547	11.138394900000002	11.8910149	9.684195299999999
-22.577766817105058	34.56206529999999	17.0905709	5.0113739	5.9292626	6.5308579
-22.100830263264015	18.8675674	9.656514	2.7059672999999997	3.6086123999999997	2.8964737
-21.623893709422966	15.494106100000002	7.1479064	2.8844597	2.9037338999999998	2.5580060999999996
-21.146957155581923	3.8621898999999997	1.6995567	0.9034784999999999	0.6863912	0.5727635
-20.67002060174088	0.0	0.0	0.0	0.0	0.0
-20.193084047899838	0.0	0.0	0.0	0.0	0.0
-19.716147494058795	0.0	0.0	0.0	0.0	0.0
-19.239210940217752	0.0	0.0	0.0	0.0	0.0
-18.76227438637671	0.0	0.0	0.0	0.0	0.0
-18.285337832535667	0.0	0.0	0.0	0.0	0.0
-17.808401278694618	0.0	0.0	0.0	0.0	0.0
-17.331464724853575	0.0	0.0	0.0	0.0	0.0
-16.854528171012532	0.0	0.0	0.0	0.0	0.0
-16.37759161717149	0.0	0.0	0.0	0.0	0.0
-15.900655063330449	0.0	0.0	0.0	0.0	0.0
-15.423718509489403	0.0	0.0	0.0	0.0	0.0
-14.94678195564836	0.0	0.0	0.0	0.0	0.0
-14.469845401807317	0.0	0.0	0.0	0.0	0.0
-13.992908847966275	0.0033617	0.00034199999999999996	0.0010064	0.0008728999999999999	0.0011404
-13.515972294125232	0.0053276999999999995	0.0015821000000000001	0.0012093	0.0019156000000000002	0.0006206999999999999
-13.03903574028419	2.9863803	2.6140448999999997	0.11446519999999999	0.1605187	0.0973515
-12.56209918644314	18.0134813	15.3396178	0.923274	0.9344215	0.816168
-12.085162632602097	43.346762899999995	37.290401499999994	2.1266158999999996	1.8282591	2.1014863999999998
-11.608226078761055	51.9679004	45.15192370000001	2.2562508999999995	2.2866937	2.2730320999999996
-11.131289524920012	51.4958604	44.46606840000001	2.4500045000000004	2.0725815	2.5072059999999996
-10.65435297107897	27.896660899999997	23.774873199999995	1.1600698000000003	1.2264135000000003	1.7353044
-10.177416417237927	14.030589099999998	11.7753477	0.6424899999999998	0.6452180999999999	0.9675332999999999
-9.700479863396884	18.5893572	15.115911299999999	1.0459966999999997	1.5303950000000002	0.8970541999999999
-9.223543309555842	26.005768	15.894269300000001	3.2794461	2.7709023999999998	4.061150199999999
-8.746606755714799	22.040876599999997	11.256504999999999	3.1307026	3.5791928	4.074476199999999
-8.26967020187375	20.325508900000003	9.945420899999998	3.3165621	3.3935359	3.66999
-7.792733648032707	28.969386699999998	14.5353152	4.506377799999999	4.6132777	5.3144160000000005
-7.315797094191664	23.6488039	11.1810808	4.227448299999999	3.8164165999999997	4.4238582
-6.8388605403506215	18.801721899999997	7.044381	4.090280999999999	3.3975042999999996	4.2695555999999995
-6.361923986509579	24.345678699999997	3.960197000000001	6.600525299999999	8.1669583	5.617998100000001
-5.884987432668536	31.525445999999995	3.1588989000000005	9.924129	11.3796233	7.062794799999997
-5.408050878827494	16.502446699999997	1.1961764000000001	4.966236799999999	4.520981999999998	5.8190515
-4.931114324986451	7.984109499999999	0.7800453999999999	3.1935755	2.0836341000000003	1.9268545
-4.454177771145402	8.006935	0.6736909999999998	3.0731596	1.8200917	2.4399927
-3.9772412173043596	4.1801172	0.4073558	1.3702854	0.7341009	1.6683751000000002
-3.500304663463317	0.7102244999999999	0.17469229999999997	0.12199040000000001	0.2776749999999999	0.13586679999999995
-3.0233681096222744	1.4084743999999996	0.3420095999999999	0.24974459999999996	0.5569586	0.2597616
-2.546431555781232	1.5486592	0.3260896	0.3040946	0.6094874999999997	0.3089875
-2.069495001940189	1.3435738999999998	0.3833605999999999	0.19919289999999998	0.5724406000000001	0.1885797999999999
-1.5925584480991466	2.1278101	0.48101109999999986	0.38639750000000006	0.8636560999999999	0.39674539999999997
-1.115621894258104	2.1466702	0.44098109999999996	0.39322050000000003	0.8880644	0.42440420000000006
-0.6386853404170614	1.2024066999999998	0.23737959999999997	0.23273420000000003	0.477942	0.25435089999999994
-0.16174878657601166	1.729843	0.8892626	0.1582141	0.5259917999999999	0.1563745
0.31518776726503095	2.0289408	0.49770319999999996	0.33727899999999994	0.8756784999999998	0.31828009999999995
0.7921243211060736	2.199678	1.17163	0.3243931	0.4402972	0.2633577
1.2690608749471162	4.1383871	2.040156	0.4972246	0.9858121	0.6151944
1.745997428788159	11.985141500000003	4.9300079	2.0308829999999998	2.8391529999999996	2.1850975999999998
2.2229339826292014	13.233679400000002	4.119765699999999	2.4800684000000004	3.2186839000000003	3.4151613999999997
2.699870536470244	23.1253435	7.9532273999999985	5.5943045	4.7409785	4.8368331
3.1768070903112866	33.1138603	10.662604499999999	6.890920700000001	7.316186600000001	8.2441485
3.6537436441523363	35.1010334	9.963047299999998	7.3977776	8.960390599999998	8.779817899999998
4.130680197993379	47.99556690000001	13.121362799999998	11.090784499999998	11.289267599999999	12.494152
4.6076167518344215	41.824785799999994	11.351934399999998	9.5270244	10.276508499999998	10.669318499999997
5.084553305675464	46.47369919999999	12.3321334	10.778294799999998	12.150207300000002	11.213063700000001
5.561489859516507	58.3800538	16.655174799999994	12.340994	14.420144800000001	14.963740200000002
6.038426413357549	64.0162502	18.765191799999997	14.838457799999995	15.128519800000001	15.284080799999998
6.515362967198592	54.36024270000001	17.3354832	12.587813899999999	12.145806699999998	12.291138900000002
6.992299521039635	82.322599	29.355108100000002	17.620099	17.091080999999996	18.256310900000003
7.469236074880677	83.460555	29.565345199999992	18.925986299999995	17.0298137	17.9394098
7.946172628721727	80.46154340000001	30.277185100000004	16.5265326	16.920638099999998	16.7371876
8.423109182562769	88.59375620000002	35.4578688	17.017105700000002	18.101274500000002	18.0175072
8.900045736403811	74.5812098	30.5532382	15.282203599999999	14.5427636	14.203004399999998
9.376982290244854	81.1680076	33.8985437	15.8092427	15.647110099999999	15.813111099999999
9.853918844085896	72.87993119999999	29.408725800000006	14.107904099999999	14.497158499999998	14.8661428
10.330855397926939	84.03899150000002	32.643322	17.3082447	16.3452093	17.7422155
10.807791951767982	70.69735919999998	27.306586999999997	14.263821499999999	14.2791159	14.847834800000001
11.284728505609024	63.67173879999999	23.5681986	13.466692200000002	13.7762911	12.860556899999999
11.761665059450076	60.0698061	19.5899273	12.9660487	13.901172999999995	13.612657099999998
12.238601613291118	56.902904299999996	17.6213202	12.2063665	13.573859	13.501358599999996
12.715538167132161	47.414361899999996	14.251287500000002	10.7892757	11.7303471	10.643451600000002
13.192474720973204	49.2335436	14.7744881	12.646703099999998	10.9240226	10.888329799999998
13.669411274814246	58.98866930000001	15.975631	14.849617899999998	13.939305699999997	14.224114700000001
14.146347828655289	48.3707011	12.688398499999996	12.866434599999998	11.263514899999997	11.552353100000001
14.623284382496331	57.7047573	14.917641899999998	14.806504999999998	14.529894999999998	13.450715400000002
15.100220936337374	51.10520980000001	12.158697599999998	13.308233499999996	13.193990100000006	12.444288599999998
15.577157490178417	50.991615300000014	12.130746899999997	12.928896499999999	13.007189800000003	12.9247821
16.054094044019465	50.231464499999994	11.844444299999997	12.929431400000002	13.387414999999997	12.070173799999996
16.531030597860507	47.357528	11.234377700000001	12.0919683	12.7156532	11.315528799999997
17.00796715170155	45.86716989999999	10.745547899999998	11.746105	12.3390095	11.036507500000003
17.484903705542592	43.63261429999999	10.264544399999998	12.150899699999998	10.6990567	10.5181135
17.961840259383635	46.304413499999995	10.8047092	11.8140372	11.8920743	11.793592800000003
18.438776813224678	50.303647200000015	10.972866300000002	13.283177999999998	13.264770899999997	12.782831999999999
18.91571336706572	47.05934969999999	9.806402999999998	12.793726800000002	12.499698	11.959521899999999
19.392649920906763	45.02369979999999	9.6039923	12.8044265	11.308643499999999	11.306637499999997
19.869586474747805	41.34728020000001	8.6134923	11.136695399999997	11.415240299999997	10.1818522
20.346523028588848	44.2693094	9.2659636	12.230379800000001	11.501380699999999	11.2715853
20.82345958242989	40.8121654	7.9543859	11.002124100000001	11.271011999999999	10.5846434
21.300396136270933	41.8525268	8.490563899999998	11.222964699999999	11.203845899999997	10.935152299999999
21.777332690111976	42.617698299999994	8.727557899999999	12.103266900000001	11.205885899999998	10.5809876
22.254269243953033	45.073868299999994	8.694742199999999	12.703267499999999	12.299199499999997	11.3766591
22.731205797794075	44.222035199999986	9.1742413	12.6608588	11.889624699999999	10.497310400000002
23.208142351635118	39.168228	7.455015200000001	11.337503	10.538740299999999	9.836969499999999
23.68507890547616	39.7268857	7.5065481	10.9727766	11.195723699999999	10.0518373
24.162015459317203	38.8607732	7.834054699999999	11.329184099999999	10.3813381	9.316196299999998
24.638952013158246	35.8125806	6.883401199999999	10.7689511	9.2041684	8.9560599
25.11588856699929	33.82070519999999	6.931124500000001	9.5663911	9.421602100000001	7.901587500000001
25.59282512084033	38.429262800000004	7.4138193	10.466546499999998	10.9867209	9.5621761
26.069761674681374	36.25656529999999	6.7006535	10.642486299999998	9.651906899999998	9.2615186
26.546698228522416	33.4031341	6.198525600000001	9.878500200000001	8.3808598	8.945248500000002
27.02363478236346	37.5174455	6.495372999999998	11.3366893	9.681258199999997	10.004125
27.5005713362045	32.80379599999999	6.1509154	9.564928799999999	8.864283899999998	8.223667899999999
27.977507890045544	32.100282099999994	5.842900300000001	9.2194209	8.3640893	8.6738716
28.454444443886587	30.1142065	5.5438419	8.818289400000001	7.5525563999999985	8.1995188
28.93138099772763	29.6848085	5.4348996000000005	8.607828099999999	7.9794605999999995	7.662620199999999
29.408317551568672	31.9602743	5.760228900000001	8.880816500000002	8.267467599999998	9.0517613
29.885254105409714	31.2354738	6.2389637	8.5026734	8.1339422	8.359894500000001
30.36219065925077	29.397170099999997	5.7133827	8.077076100000001	7.5805755	8.026135799999999
30.839127213091814	31.540484600000003	6.028240299999999	8.6864293	8.2615216	8.564293399999999
31.316063766932857	25.0249521	4.5704988	7.053495900000001	6.4973681	6.903589299999999
31.7930003207739	27.748703	5.258060899999999	7.4939281	7.209856099999999	7.786857899999999
32.26993687461494	26.8842982	4.5702093999999995	7.753096500000001	7.086442900000001	7.474549399999999
32.746873428455984	28.443145999999995	4.785919499999999	7.7724478	7.663530300000001	8.221248399999999
33.22380998229703	28.8861646	4.8532426	8.129539099999997	7.5444984	8.3588845
33.70074653613807	27.5080012	4.5727417	7.851159799999999	7.449124899999999	7.634974799999999
34.17768308997911	25.946888199999993	4.2358828	7.490860600000002	6.7608906	7.4592542
34.654619643820155	29.853719199999997	4.662531400000001	8.548418600000002	7.9136218	8.729147399999999
35.1315561976612	25.367347000000002	3.7711481	7.436451799999999	6.763955999999999	7.395791099999999
35.60849275150224	27.770044300000002	4.1636983999999995	8.2840812	7.4872375	7.8350272
36.08542930534328	26.586655099999994	4.0401175	8.5238386	6.7641855999999985	7.258513399999999
36.562365859184325	28.271525800000003	3.9703465999999996	8.6676561	7.340539399999999	8.2929837
37.03930241302537	21.637996799999996	3.1529093	6.375973399999999	5.4519476	6.657166499999999
37.51623896686641	25.939827300000005	3.4964720999999996	7.936827199999999	6.7936714999999985	7.7128565
37.99317552070745	22.2953096	2.8144658	6.451757500000001	5.734503	7.294583299999999
38.47011207454851	23.6625228	2.688758	6.899659399999998	6.3806959999999995	7.693409399999999
38.94704862838955	23.348905100000003	2.5714172	6.8971124	6.4158066	7.464568900000002
39.423985182230595	28.011330500000007	3.1927648	7.674719	7.7634758999999995	9.3803708
39.90092173607164	20.816250399999998	2.2600644999999995	6.0901383000000004	5.610707099999999	6.8553405000000005
40.37785828991268	24.056430500000005	2.4167465999999997	7.435949800000001	6.609349299999999	7.594384800000001
40.85479484375372	25.1880742	2.4060871999999995	7.8380058	7.1923962999999995	7.751584899999999
41.331731397594766	17.018089099999997	1.6929973999999999	5.1832164	4.9369466	5.2049287
41.80866795143581	28.3818256	2.2508584	8.5578792	8.541748299999998	9.0313397
42.28560450527685	29.9229141	2.3211737999999995	9.1652534	8.769755299999998	9.666731599999997
42.76254105911789	21.191618899999998	1.4858290999999997	6.768980599999999	6.3328992	6.60391
43.239477612958936	17.687725	1.2313101999999998	5.058472	5.4561694	5.9417734
43.71641416679998	30.810512599999992	1.8805058000000001	9.426701499999998	9.023904999999997	10.479400299999998
44.19335072064102	25.053928699999997	1.5308577	7.409415499999999	7.4703196	8.643335899999999
44.670287274482064	24.8146646	1.3123124	7.7215219	7.515650999999999	8.265179299999998
45.147223828323106	18.7426296	0.9634555	5.260045600000001	5.843429400000001	6.675699099999999
45.62416038216415	29.511072499999997	1.4947575000000002	8.537322099999999	9.7932661	9.6857268
46.10109693600519	23.0845907	1.1230551	6.2201391	7.4291423	8.3122542
46.57803348984625	28.038444100000003	1.3740483	8.0166258	8.595994099999999	10.0517759
47.05497004368729	27.563228199999994	1.3520507	7.7213405999999996	8.6118563	9.877980599999999
47.531906597528334	20.555999500000002	1.1090388	5.7179447	6.337828700000001	7.3911873
48.008843151369376	18.640031	1.0630444	5.206602299999999	5.8092738	6.5611105
48.48577970521042	22.769943	1.1809839	6.7653293	6.3716935	8.4519363
48.96271625905146	24.1881372	1.3678971	7.285386299999999	7.728833300000001	7.806020499999999
49.439652812892504	24.818890399999994	1.4786015	6.717887	7.7400024	8.8823995
49.91658936673355	18.8179926	1.1631456	5.2875844999999995	5.7629372	6.6043253
50.39352592057459	23.166492199999993	1.6610161	6.288566599999999	7.2930297	7.923879799999998
50.87046247441563	25.697453399999997	1.9347179999999997	7.260617999999999	7.7695726999999986	8.7325447
51.347399028256675	22.8424899	1.906519	6.028161000000001	7.257936599999999	7.649873299999999
51.82433558209772	20.4532807	2.0073561	5.6415318999999995	6.064107300000001	6.7402853999999985
52.30127213593876	14.8280735	1.5139627000000002	3.7262747	4.2922782	5.2955579
52.7782086897798	21.712935599999998	2.6618761	5.734787699999999	6.2589412	7.0573306
53.255145243620845	18.264987299999998	2.6341796	5.066459599999999	5.2068053	5.3575428
53.73208179746189	20.8661589	2.9313553000000003	5.7733314	6.4697944	5.691677800000001
54.20901835130293	23.655179000000004	3.7328907	6.797155999999999	6.639348199999999	6.485784099999999
54.68595490514399	21.133760199999998	3.1787712999999997	6.278346900000001	6.133962399999998	5.5426796
55.16289145898503	24.548177199999998	3.7671623999999997	7.2473236000000005	6.82067	6.713021199999998
55.63982801282607	26.603333999999997	4.3207121	7.730515499999999	7.408447	7.1436594
56.116764566667115	21.8633071	3.8588937999999993	6.3631862	6.2814935	5.359733599999999
56.59370112050816	25.611816500000003	4.041327699999999	7.8214815999999985	7.2934877999999985	6.4555194
57.0706376743492	22.510622500000004	3.5283707999999994	6.3758716	6.9259224	5.680457699999999
57.54757422819024	23.1258959	3.7860187	6.721115199999999	6.8322571	5.7865049
58.024510782031285	27.454154	4.3374387	7.849832300000001	8.6549672	6.611915799999999
58.50144733587233	29.215252500000002	4.5059819999999995	8.056092499999998	9.7854339	6.8677441
58.97838388971337	28.279554299999997	4.3133236	7.913401	9.345472199999998	6.7073575
59.45532044355441	25.1732951	3.9903308999999996	7.1869941	8.142517899999998	5.8534521999999996
59.932256997395456	31.376624999999997	4.938728	9.199619299999998	9.5261259	7.712151800000001
60.4091935512365	30.516908400000002	4.5795952	9.0213316	9.4123466	7.503634999999999
60.88613010507754	29.1920483	4.241211399999999	8.4482611	8.855023000000001	7.6475528
61.363066658918584	32.7296054	5.0940663	9.719823499999999	9.7046472	8.211068399999998
61.840003212759626	30.674529099999994	4.6571425	9.332432399999998	8.947493699999999	7.737460499999999
62.31693976660067	31.761865399999998	4.8865628999999995	9.1791052	9.1687562	8.5274411
62.793876320441726	33.99971059999999	5.4748263999999995	9.4619667	9.3319201	9.7309974
63.27081287428277	35.572363599999996	5.812492899999999	9.456798599999997	10.701439499999998	9.601632599999999
63.74774942812381	25.118399000000004	3.9069888999999995	6.987407099999999	7.4379683000000005	6.786034699999999
64.22468598196485	32.5472124	5.4279269	9.0806182	9.984766299999999	8.053900999999998
64.7016225358059	32.6653981	5.508691399999999	8.9433606	9.426411099999997	8.786934999999998
65.17855908964694	28.667640100000007	4.6634366	8.251461599999999	7.7097475	8.0429944
65.65549564348798	26.447351599999998	4.5223895999999995	7.0570953	7.5150225	7.3528442
66.13243219732902	24.4204688	4.4525304	6.4771141	6.749028699999999	6.7417956
66.60936875117007	27.5179337	5.469441499999999	6.7011715999999995	7.802331200000001	7.5449893999999995
67.08630530501111	25.1768054	4.8237671	6.543127200000001	7.3068952000000005	6.503015899999999
67.56324185885214	24.732392	5.281348799999999	6.3597746	7.0156668	6.075601799999999
68.0401784126932	30.7732521	7.010932599999999	7.9574466	7.7782574	8.026615499999998
68.51711496653422	22.9366204	5.7212377	5.2399051000000005	6.419062799999999	5.5564148
68.99405152037528	24.4407516	6.985776099999999	5.6065504	5.846106	6.002319099999999
69.47098807421631	26.273507	7.591979900000001	6.7183872	5.9817916	5.9813483
69.94792462805736	29.9708592	8.470105399999998	6.8668629999999995	7.1806180999999984	7.453272699999999
70.4248611818984	22.2748392	5.908730199999999	5.0436268	4.9229261	6.3995561
70.90179773573945	20.145354099999995	6.295733099999999	4.048584399999999	4.4838045	5.3172321
71.3787342895805	23.7824831	7.4250932	5.418768699999999	5.008020900000001	5.930600299999999
71.85567084342154	17.570339	5.8201968	3.9283209999999995	3.7911462	4.030675
72.33260739726259	18.2641103	5.1634241	4.029987599999999	4.4562140999999995	4.6144845000000005
72.80954395110362	17.359961100000003	5.428824199999999	3.7572033000000005	3.7160634000000003	4.4578702
73.28648050494468	21.9501834	6.3128440999999995	4.0363501	6.041662699999999	5.5593265
73.7634170587857	15.904918599999998	4.810386499999999	3.1486893000000005	3.7687353999999997	4.1771074
74.24035361262676	15.0203374	5.3816489999999995	2.770085	3.0326758	3.8359276
74.71729016646779	17.678064099999997	6.039015499999999	3.0830316	4.4185522	4.1374648
75.19422672030885	17.2796052	5.9963736999999995	3.1921562999999997	3.66528	4.4257952
75.67116327414988	16.261810999999998	5.636290599999999	3.0184479999999994	4.096615099999999	3.5104572999999997
76.14809982799093	11.352205399999999	4.194666999999999	1.7764552999999998	2.7260777000000003	2.6550053999999994
76.62503638183196	9.7696589	3.9692887	1.8857194	1.9021362999999998	2.0125145
77.10197293567302	14.939231	5.846350999999999	3.2845508	2.8910636	2.9172655999999995
77.57890948951405	13.696599100000002	6.1687366	2.1532982	2.3882277	2.9863366
78.0558460433551	17.4687327	7.9982864	2.9649387999999997	3.3238163	3.1816911999999995
78.53278259719613	12.466031099999999	5.1432362	1.9848845	2.6742210999999996	2.6636892999999997
79.00971915103719	9.2137915	3.3272961	1.4419728	2.1192921	2.3252305
79.48665570487825	13.189543599999999	5.0799139	2.9503737999999995	2.9087044	2.2505515
79.96359225871927	13.0675907	4.5877323	3.0023736	3.0947818000000002	2.382703
80.44052881256033	6.753588399999999	2.5519846999999998	1.4982775	1.2526863999999998	1.4506397999999998
80.91746536640136	12.6082583	4.9773641	2.5084582999999996	2.7660971	2.3563387999999996
81.39440192024242	15.411318199999998	6.302738699999999	3.4007525999999997	3.2202297999999994	2.4875971
81.87133847408344	15.972819900000001	6.9089901	3.0401215999999995	3.3099233	2.7137849000000003
82.3482750279245	8.0744303	3.1168200999999995	1.6486950999999999	1.4995922	1.8093229
82.82521158176553	13.6643544	5.6359828	2.3613397999999997	2.9836652999999993	2.6833665
83.30214813560659	14.702905699999999	6.081172099999999	2.3760008999999997	3.4106826	2.8350500999999997
83.77908468944764	7.0817637	2.9828887	1.250907	1.6885507	1.1594173
84.25602124328867	3.5230463999999997	1.4005786	0.6760552	0.7249974	0.7214151999999998
84.73295779712973	11.249086300000002	4.6740275	1.8301495	2.5662057999999996	2.1787034999999997
85.20989435097076	12.496715900000002	4.965577	2.0726542	2.6775267	2.780958
85.68683090481181	15.013075199999998	5.773231999999999	3.2549346	2.37161	3.6132986
86.16376745865284	10.140546700000002	4.3707198	2.0114541999999997	1.7677922999999998	1.9905804
86.6407040124939	10.7315386	4.2393509	1.9945429	2.4272717999999998	2.0703729999999996
87.11764056633493	15.240130899999999	6.4264887	2.7791029999999997	2.8933790999999998	3.1411601
87.59457712017598	13.756845700000001	5.638456999999999	2.3276486	3.1210667999999995	2.6696733
88.07151367401701	7.7698047	3.1021672	1.4027614	1.7476635	1.5172126
88.54845022785807	14.6263234	5.437705800000001	2.809636	2.5301413	3.8488403000000004
89.0253867816991	11.0566638	3.5210929	2.7174549999999997	1.7317540999999999	3.0863618
89.50232333554015	8.1864507	3.128771	1.2428887	1.3112121999999997	2.5035788
89.97925988938118	8.308712499999999	3.8206681	1.2927707	2.0348349	1.1604387999999999
90.45619644322224	4.1981303	1.4026549999999998	1.0239383	0.587764	1.183773
90.93313299706327	7.2499779	2.2666615	1.3387442999999999	1.3241257	2.3204464000000002
91.41006955090432	10.831999200000002	3.1652978000000003	3.0561530999999995	2.582783	2.0277653
91.88700610474538	16.9184949	5.843981699999999	4.230318799999999	3.8672691999999995	2.9769252
92.36394265858641	10.6074887	3.4771929	2.6325241	2.673647	1.8241246999999998
92.84087921242747	8.8841713	2.8197341	1.1327139	2.8904636	2.0412597
93.3178157662685	4.7402337	1.5795217	1.2987361	0.7620765999999999	1.0998993
93.79475232010955	3.5407306	1.0327835	0.5651592	0.9967073999999999	0.9460805
94.27168887395058	4.780699	1.5319255	0.6601514999999999	0.998925	1.589697
94.74862542779164	4.7479495	1.2136639999999999	2.1149386999999997	0.7966363	0.6227105
95.22556198163267	14.474487799999997	5.061875999999999	3.4933083000000003	2.4630717	3.4562318000000003
95.70249853547372	6.372208099999999	2.5894698999999997	1.0061122	1.05124	1.7253859999999999
96.17943508931475	4.2735342	1.4085047	1.1560226	0.7462889	0.962718
96.65637164315581	7.107740299999999	1.8774606999999999	2.3139434999999997	1.8184724	1.0978637
97.13330819699684	13.1754854	4.1844612	4.5468865	2.3151598	2.1289778999999998
97.6102447508379	8.8620272	2.8769705	2.7682211	1.5442224999999998	1.6726131
98.08718130467892	8.581737500000001	2.3106313	3.3250842	1.6629244999999997	1.2830975
98.56411785851998	5.986039699999999	1.3171099	1.6715541999999999	1.3719808999999998	1.6253946999999997
99.041054412361	0.7275881000000001	0.24732739999999998	0.19166909999999998	0.1225089	0.1660827
99.51799096620206	2.10095	0.8653078	0.35514759999999995	0.31301589999999996	0.5674787
99.99492752004312	2.2809345	0.6491831	0.8179351999999999	0.2151341	0.5986821
100.47186407388415	7.838872800000001	1.9208488000000001	2.0725797	1.8578029999999996	1.9876412999999997
100.9488006277252	7.273245999999999	2.0008576999999996	2.1785381	1.1902571	1.9035931
101.42573718156623	4.5780759	1.2821648999999997	0.9658592	1.0640376999999999	1.2660140999999998
101.90267373540729	9.053977399999999	3.0643316999999994	1.8947572000000001	1.2245035	2.8703849999999997
102.37961028924832	4.0100558	1.0811501	2.3859129	0.3419006	0.2010922
102.85654684308938	3.2370444999999997	0.8207178999999999	0.9312927999999999	0.6215782999999999	0.8634555
103.3334833969304	4.7151083	1.3568178999999998	1.4093950999999998	1.0389464	0.9099489
103.81041995077146	5.9447341	1.6293723999999998	1.8453387999999997	1.3053924	1.1646305
104.28735650461249	11.460116299999997	2.9411834999999997	1.7000875	4.4165847	2.4022606
104.76429305845355	7.928311799999999	2.1062472	2.4300098999999995	1.1019023	2.2901523999999998
105.24122961229457	5.0232717000000005	1.7689336999999998	1.0297702	1.2854735	0.9390942999999999
105.71816616613563	8.061693499999999	2.0565778999999997	3.4899029999999995	0.8838750000000001	1.6313376000000002
106.19510271997666	1.8900963999999998	0.6774503	0.4362118	0.447245	0.32918929999999996
106.67203927381772	4.576635799999999	1.0722847	1.4367473999999998	1.6075222	0.4600815
107.14897582765875	2.3208724	0.8956829	0.34465819999999997	0.3232093	0.7573219999999999
107.6259123814998	6.8116865	1.9211661999999998	0.5494667	2.4582223	1.8828313
108.10284893534086	0.38673070000000004	0.1596681	0.0759355	0.062317	0.08881009999999999
108.57978548918189	1.4654918	0.6192093	0.3853527	0.15693939999999998	0.3039904
109.05672204302294	1.0471651	0.44350559999999994	0.3056966	0.0960914	0.2018715
109.53365859686397	2.1086183999999997	0.8108599	0.2941888	0.25652559999999996	0.7470441
110.01059515070503	0.5788806	0.22607889999999997	0.16170569999999998	0.055766899999999994	0.1353291
110.48753170454606	5.580939999999999	1.2799706999999998	2.3774464999999996	0.7220279999999999	1.2014947999999999
110.96446825838711	7.214905199999999	1.9526466999999996	1.2306498999999997	0.4479312	3.5836773999999996
111.44140481222814	6.268693399999999	1.5538109999999998	2.912775	0.8814471999999999	0.9206601999999999
111.9183413660692	0.6036761	0.3274934	0.0951508	0.0587586	0.12227329999999999
112.39527791991023	1.2431613	0.5133747999999999	0.1753009	0.09796289999999999	0.4565227
112.87221447375128	5.726046999999999	1.4726701	0.45866549999999995	2.1336249	1.6610865
113.34915102759231	1.0617329999999998	0.38443249999999995	0.31444229999999995	0.07566619999999999	0.287192
113.82608758143337	1.1578177	0.599575	0.19260059999999998	0.1372392	0.2284029
114.3030241352744	1.3567616999999998	0.8208888999999999	0.2333231	0.1555886	0.14696109999999998
114.77996068911546	0.8546487999999999	0.4336772	0.1522346	0.10033569999999999	0.16840129999999998
115.25689724295648	1.1546066	0.5840731	0.20694039999999997	0.1495365	0.21405659999999999
115.73383379679754	0.2690392	0.1382795	0.0575023	0.0195534	0.053703999999999995
116.2107703506386	1.0705436	0.6069652999999999	0.138488	0.1897992	0.1352911
116.68770690447963	0.209109	0.1227015	0.0305187	0.025350899999999996	0.030537899999999996
117.16464345832068	1.1485919	0.6452905999999999	0.1871724	0.1327568	0.18337209999999998
117.64158001216171	0.6171123	0.3557548	0.0731661	0.0721333	0.11605809999999998
118.11851656600277	0.6966643	0.4081851	0.0936658	0.09141969999999999	0.1033937
118.5954531198438	0.9119002999999999	0.5474119	0.15974080000000002	0.09090829999999998	0.1138393
119.07238967368485	0.2934603	0.2073335	0.025246599999999998	0.0312496	0.0296306