# energy total s py pz px dxy dyz dz2 dxz dx2
-47.378467616839316	0.0	0.0	0.0	0.0	0.0	0.0	0.0	0.0	0.0	0.0
-46.901531062998274	0.0	0.0	0.0	0.0	0.0	0.0	0.0	0.0	0.0	0.0
-46.42459450915723	0.0	0.0	0.0	0.0	0.0	0.0	0.0	0.0	0.0	0.0
-45.94765795531619	0.0	0.0	0.0	0.0	0.0	0.0	0.0	0.0	0.0	0.0
-45.470721401475146	0.0	0.0	0.0	0.0	0.0	0.0	0.0	0.0	0.0	0.0
-44.993784847634096	0.0	0.0	0.0	0.0	0.0	0.0	0.0	0.0	0.0	0.0
-44.51684829379305	0.0	0.0	0.0	0.0	0.0	0.0	0.0	0.0	0.0	0.0
-44.03991173995201	0.0	0.0	0.0	0.0	0.0	0.0	0.0	0.0	0.0	0.0
-43.56297518611097	0.0	0.0	0.0	0.0	0.0	0.0	0.0	0.0	0.0	0.0
-43.086038632269926	0.0	0.0	0.0	0.0	0.0	0.0	0.0	0.0	0.0	0.0
-42.60910207842888	0.0	0.0	0.0	0.0	0.0	0.0	0.0	0.0	0.0	0.0
-42.13216552458784	0.0	0.0	0.0	0.0	0.0	0.0	0.0	0.0	0.0	0.0
-41.6552289707468	0.0	0.0	0.0	0.0	0.0	0.0	0.0	0.0	0.0	0.0
-41.178292416905755	0.0	0.0	0.0	0.0	0.0	0.0	0.0	0.0	0.0	0.0
-40.701355863064705	0.0	0.0	0.0	0.0	0.0	0.0	0.0	0.0	0.0	0.0
-40.22441930922366	0.0	0.0	0.0	0.0	0.0	0.0	0.0	0.0	0.0	0.0
-39.74748275538262	0.0	0.0	0.0	0.0	0.0	0.0	0.0	0.0	0.0	0.0
-39.27054620154158	0.0	0.0	0.0	0.0	0.0	0.0	0.0	0.0	0.0	0.0
-38.793609647700535	0.0	0.0	0.0	0.0	0.0	0.0	0.0	0.0	0.0	0.0
-38.31667309385949	0.0	0.0	0.0	0.0	0.0	0.0	0.0	0.0	0.0	0.0
-37.83973654001845	0.0	0.0	0.0	0.0	0.0	0.0	0.0	0.0	0.0	0.0
-37.3627999861774	0.0	0.0	0.0	0.0	0.0	0.0	0.0	0.0	0.0	0.0
-36.88586343233636	0.0	0.0	0.0	0.0	0.0	0.0	0.0	0.0	0.0	0.0
-36.408926878495315	0.0	0.0	0.0	0.0	0.0	0.0	0.0	0.0	0.0	0.0
-35.93199032465427	9.937829299999999	8.533368999999999	0.22366279999999997	0.0010776	0.1952411	0.008524599999999998	3.7e-05	0.9374129999999999	4.7e-05	0.0384572
-35.45505377081323	49.8511448	41.482336399999994	2.4791872999999995	0.0020003	2.4892849999999997	0.1681892	0.0002399	1.8393576	0.00025089999999999997	1.3902982
-34.97811721697219	49.959526399999994	40.36657379999999	2.6945012	0.0003332999999999999	2.7107498	0.3475162	4.38e-05	0.237903	4.7300000000000005e-05	3.601858
-34.501180663131144	79.9821816	63.4981843	3.0374277000000003	0.00013529999999999995	3.0202197	0.3735226	1.4299999999999999e-05	0.5819959	1.1500000000000002e-05	9.4706703
-34.0242441092901	49.9961894	43.0674149	1.7467593	6.25e-05	1.7724307000000001	0.20110019999999998	4.399999999999999e-06	1.3624058	3.4e-06	1.8460082
-33.54730755544906	9.9991721	9.123470399999999	0.19273859999999998	1.97e-05	0.18087269999999997	0.010903399999999999	1e-06	0.4616228	5.999999999999999e-07	0.0295429
-33.07037100160802	0.0	0.0	0.0	0.0	0.0	0.0	0.0	0.0	0.0	0.0
-32.59343444776697	0.0	0.0	0.0	0.0	0.0	0.0	0.0	0.0	0.0	0.0
-32.116497893925924	0.0	0.0	0.0	0.0	0.0	0.0	0.0	0.0	0.0	0.0
-31.63956134008488	0.0	0.0	0.0	0.0	0.0	0.0	0.0	0.0	0.0	0.0
-31.16262478624384	0.0	0.0	0.0	0.0	0.0	0.0	0.0	0.0	0.0	0.0
-30.685688232402796	0.0	0.0	0.0	0.0	0.0	0.0	0.0	0.0	0.0	0.0
-30.208751678561754	0.0	0.0	0.0	0.0	0.0	0.0	0.0	0.0	0.0	0.0
-29.731815124720704	0.0	0.0	0.0	0.0	0.0	0.0	0.0	0.0	0.0	0.0
-29.25487857087966	0.0	0.0	0.0	0.0	0.0	0.0	0.0	0.0	0.0	0.0
-28.77794201703862	0.0	0.0	0.0	0.0	0.0	0.0	0.0	0.0	0.0	0.0
-28.301005463197576	0.0	0.0	0.0	0.0	0.0	0.0	0.0	0.0	0.0	0.0
-27.824068909356534	0.0	0.0	0.0	0.0	0.0	0.0	0.0	0.0	0.0	0.0
-27.34713235551549	0.0	0.0	0.0	0.0	0.0	0.0	0.0	0.0	0.0	0.0
-26.87019580167445	0.0	0.0	0.0	0.0	0.0	0.0	0.0	0.0	0.0	0.0
-26.393259247833406	0.0	0.0	0.0	0.0	0.0	0.0	0.0	0.0	0.0	0.0
-25.916322693992356	0.0	0.0	0.0	0.0	0.0	0.0	0.0	0.0	0.0	0.0
-25.439386140151313	0.0	0.0	0.0	0.0	0.0	0.0	0.0	0.0	0.0	0.0
-24.96244958631027	8e-07	2e-07	0.0	2.9999999999999993e-07	0.0	0.0	0.0	2.9999999999999993e-07	0.0	0.0
-24.48551303246923	0.014842900000000001	0.0016592	0.0003290999999999999	0.0039492	0.0003486	6.35e-05	0.0008253000000000001	0.0066644	0.0009197	8.389999999999999e-05
-24.008576478628186	0.0703144	0.0037073999999999996	0.0013480999999999996	0.0129214	0.000969	0.0003992999999999999	0.0087045	0.037334900000000004	0.0045907000000000005	0.00033909999999999995
-23.531639924787143	0.0132973	0.0014231999999999997	0.00026240000000000004	0.003386699999999999	0.0005457999999999999	8.919999999999999e-05	0.0008031000000000001	0.005289899999999998	0.0013627999999999995	0.00013419999999999998
-23.0547033709461	0.014320900000000001	0.0006710999999999998	0.0001743	0.0013907	0.0002448	0.0001733	0.0008776999999999998	0.007156899999999999	0.0035689999999999997	6.309999999999999e-05
-22.577766817105058	0.0026236000000000002	0.0003892	8.68e-05	0.0008171	7.04e-05	1.3e-05	0.0002534	0.0008093999999999999	0.0001563	2.7999999999999996e-05
-22.100830263264015	0.0	0.0	0.0	0.0	0.0	0.0	0.0	0.0	0.0	0.0
-21.623893709422966	0.0	0.0	0.0	0.0	0.0	0.0	0.0	0.0	0.0	0.0
-21.146957155581923	0.0	0.0	0.0	0.0	0.0	0.0	0.0	0.0	0.0	0.0
-20.67002060174088	0.0	0.0	0.0	0.0	0.0	0.0	0.0	0.0	0.0	0.0
-20.193084047899838	0.0	0.0	0.0	0.0	0.0	0.0	0.0	0.0	0.0	0.0
-19.716147494058795	0.0	0.0	0.0	0.0	0.0	0.0	0.0	0.0	0.0	0.0
-19.239210940217752	0.0	0.0	0.0	0.0	0.0	0.0	0.0	0.0	0.0	0.0
-18.76227438637671	0.0	0.0	0.0	0.0	0.0	0.0	0.0	0.0	0.0	0.0
-18.285337832535667	0.0	0.0	0.0	0.0	0.0	0.0	0.0	0.0	0.0	0.0
-17.808401278694618	0.0	0.0	0.0	0.0	0.0	0.0	0.0	0.0	0.0	0.0
-17.331464724853575	0.0	0.0	0.0	0.0	0.0	0.0	0.0	0.0	0.0	0.0
-16.854528171012532	0.0	0.0	0.0	0.0	0.0	0.0	0.0	0.0	0.0	0.0
-16.37759161717149	0.0	0.0	0.0	0.0	0.0	0.0	0.0	0.0	0.0	0.0
-15.900655063330449	0.0	0.0	0.0	0.0	0.0	0.0	0.0	0.0	0.0	0.0
-15.423718509489403	0.0	0.0	0.0	0.0	0.0	0.0	0.0	0.0	0.0	0.0
-14.94678195564836	0.0	0.0	0.0	0.0	0.0	0.0	0.0	0.0	0.0	0.0
-14.469845401807317	0.0	0.0	0.0	0.0	0.0	0.0	0.0	0.0	0.0	0.0
-13.992908847966275	19.9956668	0.14965119999999998	9.782699899999999	0.00033689999999999995	9.7636083	0.2169327	5.6e-06	0.04765719999999999	5.3e-06	0.0347697
-13.515972294125232	39.989806099999996	0.2681362	18.9676567	0.0010835	18.97118	1.6603605	3.0200000000000002e-05	0.04924349999999999	2.1599999999999996e-05	0.0720939
-13.03903574028419	59.970748099999994	0.8688641	28.688431400000002	0.0046224000000000005	28.722467299999998	1.4288981	7.63e-05	0.1300797	0.00010499999999999999	0.12720379999999998
-12.56209918644314	89.064984	0.7080694999999999	28.679450199999994	28.3123363	28.672258900000003	1.7027917000000004	0.39015159999999993	0.0296814	0.3918595	0.17838489999999999
-12.085162632602097	91.47407379999999	1.0312873	19.4030766	49.1121884	19.078482399999995	0.338123	1.0965361	0.1458835	1.1303545	0.138142
-11.608226078761055	120.24087579999997	1.4101066999999996	18.748520999999997	77.7829642	19.113716399999998	0.48126679999999994	1.2457099	0.14118029999999998	1.2223887999999998	0.09502169999999999
-11.131289524920012	108.1504193	0.7835154	19.370745099999993	66.6081781	19.3040419	0.24537089999999998	0.7747768000000002	0.0581553	0.7537644999999996	0.25187129999999996
-10.65435297107897	70.7332795	2.3292346999999993	22.8995705	20.484408	23.971022799999993	0.203121	0.14204260000000002	0.3250096	0.15295379999999997	0.2259165
-10.177416417237927	49.995776299999996	0.8752334	24.695066199999996	0.0013303999999999998	23.6504866	0.135382	1.8200000000000002e-05	0.0351111	1.98e-05	0.6031286
-9.700479863396884	49.977101600000005	0.6882499999999999	25.8702427	0.0004758	23.372067999999995	0.004592699999999999	1.63e-05	0.025805799999999993	2.52e-05	0.015625099999999996
-9.223543309555842	50.045804600000004	0.3453052999999999	23.551172199999993	0.019966799999999996	26.0489196	0.0036564999999999996	0.0007674	0.030217099999999997	0.0014552999999999999	0.0443444
-8.746606755714799	0.0538277	0.0015109000000000001	0.0027503999999999996	0.029979799999999997	0.0027140999999999997	0.0001789	0.0020765	0.0126077	0.0018623000000000001	0.0001471
-8.26967020187375	0.10359869999999997	0.0032262000000000002	0.003976499999999999	0.0606015	0.0026143	0.0001348	0.0038477999999999997	0.027179500000000002	0.0013522999999999999	0.0006657999999999998
-7.792733648032707	0.0656859	0.0031726	0.0020659999999999993	0.034450499999999995	0.0015788999999999998	0.0001589	0.0023654999999999995	0.019613999999999996	0.0018364000000000002	0.00044309999999999993
-7.315797094191664	0.0733295	0.0039604	0.0027954	0.0326046	0.0019201	0.0007573	0.005440899999999999	0.0203008	0.005216500000000001	0.0003335
-6.8388605403506215	0.0028155999999999997	0.0001712	0.0001073	0.0011492	0.0001315	2.03e-05	0.0001995	0.0007815999999999999	0.00023969999999999997	1.5299999999999996e-05
-6.361923986509579	0.0837965	0.005807399999999999	0.0042362	0.033946500000000004	0.0026965	0.000394	0.0092588	0.022748299999999996	0.004339999999999999	0.00036879999999999997
-5.884987432668536	0.1538804	0.012104399999999996	0.009573400000000004	0.05729060000000001	0.004251899999999999	0.0011013	0.021524399999999996	0.0395046	0.007816	0.0007138000000000001
-5.408050878827494	0.0036503999999999994	0.00037339999999999997	0.0001389	0.0013446000000000003	0.0001195	2.4799999999999993e-05	0.00032950000000000004	0.0010091999999999998	0.00029480000000000006	1.57e-05
-4.931114324986451	0.0006917999999999998	5.4099999999999994e-05	2.64e-05	0.00027209999999999995	2.4399999999999997e-05	6.6e-06	4.7799999999999996e-05	0.0002078	4.94e-05	3.2e-06
-4.454177771145402	0.0	0.0	0.0	0.0	0.0	0.0	0.0	0.0	0.0	0.0
-3.9772412173043596	0.0	0.0	0.0	0.0	0.0	0.0	0.0	0.0	0.0	0.0
-3.500304663463317	0.0	0.0	0.0	0.0	0.0	0.0	0.0	0.0	0.0	0.0
-3.0233681096222744	0.0	0.0	0.0	0.0	0.0	0.0	0.0	0.0	0.0	0.0
-2.546431555781232	0.0	0.0	0.0	0.0	0.0	0.0	0.0	0.0	0.0	0.0
-2.069495001940189	0.0	0.0	0.0	0.0	0.0	0.0	0.0	0.0	0.0	0.0
-1.5925584480991466	0.0	0.0	0.0	0.0	0.0	0.0	0.0	0.0	0.0	0.0
-1.115621894258104	0.0	0.0	0.0	0.0	0.0	0.0	0.0	0.0	0.0	0.0
-0.6386853404170614	0.0	0.0	0.0	0.0	0.0	0.0	0.0	0.0	0.0	0.0
-0.16174878657601166	0.0	0.0	0.0	0.0	0.0	0.0	0.0	0.0	0.0	0.0
0.31518776726503095	0.0	0.0	0.0	0.0	0.0	0.0	0.0	0.0	0.0	0.0
0.7921243211060736	9.100000000000001e-06	2.9999999999999997e-06	2e-07	4e-06	2.9999999999999993e-07	0.0	1e-07	1.1e-06	2.9999999999999993e-07	1e-07
1.2690608749471162	0.0032949	0.0018982	0.00017349999999999996	0.0009262	3.6099999999999997e-05	1.0999999999999998e-06	1.93e-05	0.00020559999999999998	2.31e-05	1.1799999999999999e-05
1.745997428788159	1.3821246999999997	0.9060292999999999	0.10081139999999998	0.27843870000000004	0.026912899999999997	0.0006346	0.007162100000000001	0.05311719999999999	0.0045833	0.004435199999999999
2.2229339826292014	1.7799254999999998	1.0884309999999997	0.1514545	0.29621739999999996	0.11965159999999998	0.0052935000000000005	0.0108459	0.06897900000000001	0.029115399999999996	0.009937200000000002
2.699870536470244	2.4993599	1.4718125999999998	0.2296381	0.39615839999999997	0.22217999999999996	0.008230699999999999	0.027135000000000006	0.09796959999999998	0.0326037	0.0136318
3.1768070903112866	5.6781025000000005	3.1324041	0.646814	0.8207963000000001	0.6715156	0.022100999999999996	0.0793959	0.2123001	0.0588085	0.03396699999999999
3.6537436441523363	5.099291	2.5227923	0.6573598999999999	0.9022940999999999	0.5304788999999999	0.038722099999999995	0.07344059999999998	0.22175279999999994	0.10268510000000002	0.049765199999999996
4.130680197993379	10.333220699999998	4.602064299999999	1.5929067999999997	1.5605923999999998	1.78626	0.1131371	0.1506292	0.2901427	0.1398762	0.097612
4.6076167518344215	9.609324699999998	4.5356806	1.5364696999999998	1.4710513000000003	1.3628755	0.15930679999999997	0.1070454	0.2153162	0.1007399	0.1208393
5.084553305675464	10.567999499999999	4.492489199999999	1.6870044	1.6469045999999998	1.8980387	0.23968389999999998	0.1337233	0.1911953	0.1321721	0.14678799999999997
5.561489859516507	15.394148900000001	6.4355210000000005	2.2612574999999997	2.9376242	2.4752481000000004	0.3429416	0.2460188	0.2154585	0.23065660000000002	0.24942259999999997
6.038426413357549	6.8650356	2.1366974999999995	0.7030687	2.4936858	0.7679712999999997	0.10417630000000004	0.22375839999999997	0.1494765	0.20065829999999996	0.0855428
6.515362967198592	10.162092199999998	3.1950715	1.0916743	3.9201572000000007	1.0417539	0.1152959	0.2353876	0.25616629999999996	0.27244029999999997	0.034145199999999994
6.992299521039635	14.8463252	3.6939186	1.4637985999999998	6.723671799999999	1.4495165999999997	0.19306809999999996	0.41222749999999986	0.3788527	0.44207589999999997	0.0891954
7.469236074880677	26.221141600000006	6.3753307999999995	2.2922116999999997	12.690230900000003	2.1661903	0.2956621	0.9374729999999999	0.49665450000000005	0.8671764	0.10021189999999999
7.946172628721727	23.0146657	5.2999698	1.741620399999999	11.293340499999998	1.8979343999999998	0.22774120000000003	1.0523874000000002	0.41024739999999993	0.9380141999999999	0.1534104
8.423109182562769	26.411287599999998	3.8443204	3.6052025	12.0553083	3.1415613	0.4788480999999999	1.1025636	0.38008849999999994	1.1673862999999995	0.6360085999999999
8.900045736403811	24.693488700000003	6.091015499999998	3.8190386999999997	7.5267178999999995	3.4234587999999997	0.7095857999999997	0.7095951	0.4020567	0.8002537999999999	1.2117664
9.376982290244854	14.731632399999999	3.167496499999999	2.2898820999999994	4.2340815	2.9742317	0.41336159999999994	0.41624769999999994	0.32466890000000004	0.46969360000000004	0.4419688
9.853918844085896	15.225012900000001	2.5828111000000002	2.2239804999999997	5.604628099999999	2.51004	0.38320589999999993	0.7212992999999999	0.4008197	0.5894033000000001	0.20882499999999998
10.330855397926939	27.853959399999994	5.665431999999999	5.933048999999999	6.963586199999999	5.3606103	1.0735297	0.8218933	0.8737754999999999	0.7735560999999999	0.3885272999999999
10.807791951767982	32.0762053	7.839149199999998	5.6782167999999995	7.9930131	6.546891499999999	0.8692901	0.9178112	0.9745161999999999	0.8213294	0.43598780000000004
11.284728505609024	25.622739999999997	4.7623869999999995	3.3007468000000006	10.491691300000001	3.0603309000000003	0.4652896999999999	1.5326544	0.5382819	1.1911188	0.2802392
11.761665059450076	32.293120300000005	4.758776899999999	2.8508217	16.5804743	2.6686712999999997	0.35633250000000005	2.1184217000000003	0.5889919999999998	2.1259599	0.24466999999999994
12.238601613291118	11.262987	0.7360629999999999	0.6295738000000001	7.1615131	0.42181719999999995	0.09088839999999995	0.8878779	0.16649290000000003	1.111569	0.0571917
12.715538167132161	16.9917066	0.5563078999999999	0.34206849999999994	11.761649700000003	0.46721209999999996	0.08705579999999999	1.8778679999999996	0.13788219999999998	1.7174128999999998	0.044249500000000004
13.192474720973204	17.2111605	1.2623581	1.5497086999999998	8.9774234	1.9021284999999999	0.6190567	0.9718389	0.31759919999999997	1.3886291999999996	0.22241779999999994
13.669411274814246	28.3103153	2.6683048999999994	7.3333067	6.438448000000001	7.4869626	2.0111048	0.8833342000000001	0.450633	0.7444312999999998	0.29378980000000005
14.146347828655289	11.310267899999996	0.9902755999999999	1.9300007999999997	4.4283939000000005	2.1691581999999996	0.41321209999999997	0.39099319999999993	0.26960209999999996	0.5838811000000002	0.1347509
14.623284382496331	21.713743200000003	4.001355199999999	5.1829424	3.669698899999999	4.2578929	0.47591740000000005	0.4009666000000001	0.9259917000000001	0.48144870000000006	2.3175294
15.100220936337374	27.355035900000004	3.9372733999999987	8.0728016	4.3822323999999995	7.596900800000001	0.9711600000000001	0.4487378000000001	0.7177402999999999	0.4426954999999999	0.7854940999999999
15.577157490178417	25.034734500000006	3.2261525	6.656693499999999	4.0519766	7.462371200000001	0.7610132	0.4375637	1.0610515	0.4022354000000001	0.9756769000000001
16.054094044019465	29.537325299999992	5.177338300000001	8.514892999999999	3.0224759999999997	8.475916500000002	0.8223573000000001	0.36466950000000004	1.3384040999999995	0.3214451	1.4998254999999998
16.531030597860507	18.372624000000002	4.110907	1.9534474000000002	6.260169899999999	1.9232122	0.11459959999999995	0.7068753999999999	1.1818107	0.7224672999999999	1.3991345
17.00796715170155	14.227814799999997	3.2246507999999996	1.4349151999999998	5.066188599999999	1.3051819000000002	0.07912209999999999	0.5782005	0.9498703000000001	0.5652965000000001	1.0243888999999997
17.484903705542592	16.7061643	5.370001	2.5250527	2.2796620999999995	2.3531996	0.21781460000000002	0.2661435999999999	1.7295993999999997	0.22541499999999998	1.7392763
17.961840259383635	11.323511599999998	3.1980112	1.7463982999999998	2.1111119	1.6949093999999998	0.2037211	0.21966809999999998	0.9541201	0.23317399999999996	0.9623974999999998
18.438776813224678	5.488375199999999	0.7521194999999998	0.5509485999999998	2.5319306	0.47071279999999993	0.041890399999999994	0.27527609999999997	0.43024249999999997	0.27154239999999996	0.16371229999999995
18.91571336706572	6.7467452	0.6278589000000001	0.4552682	3.8054780999999984	0.45874739999999997	0.04276219999999999	0.44361569999999995	0.33209859999999997	0.43226489999999995	0.1486512
19.392649920906763	13.473438899999998	0.5146544999999999	5.0584733	1.3342144999999996	5.3263288	0.3892738999999999	0.1491272	0.37440840000000003	0.15272719999999998	0.1742311
19.869586474747805	14.363560999999999	1.5009285999999995	5.095012	1.08321	4.3049453	1.1288713	0.15050300000000003	0.7464824999999999	0.1163772	0.23723109999999997
20.346523028588848	22.5610543	2.2573184	8.317395699999999	1.4096487000000002	7.407926799999999	1.2162902999999998	0.28706269999999995	0.9599345999999999	0.1588163	0.5466608
20.82345958242989	8.354305	0.8560240999999998	1.8044671999999997	1.3807241	2.8314604999999995	0.43600990000000006	0.20902980000000002	0.4873376999999999	0.19164099999999998	0.15761069999999996
21.300396136270933	3.4142000000000006	0.44329850000000004	0.5940875999999999	0.7932398999999999	0.6654982999999999	0.11515549999999997	0.14415269999999997	0.4865499999999999	0.10927719999999998	0.0629403
21.777332690111976	2.5936255999999993	0.32378789999999996	0.4914898	0.6040437	0.3463125	0.0503874	0.1318228	0.46028319999999995	0.13337569999999999	0.0521226
22.254269243953033	4.956246299999999	0.6779672999999999	0.8004387999999998	0.7500813000000001	0.7056627	0.0940261	0.24735629999999997	1.3483543999999996	0.24153750000000002	0.09082190000000001
22.731205797794075	3.7800918000000006	0.533304	0.7672551	0.5520478	0.4921135	0.1258501	0.26088749999999994	0.7370163	0.23479839999999996	0.07681909999999999
23.208142351635118	5.396936800000001	0.7181601	0.9255628	0.6798864000000001	1.0909380999999998	0.16124469999999994	0.37083409999999994	1.1098301	0.20497909999999997	0.1355014
23.68507890547616	16.664442899999994	3.0895187	4.258668699999999	0.4744177	5.097621800000001	0.8317996	0.40737059999999997	1.7390549	0.25654679999999996	0.5094441
24.162015459317203	18.234465300000004	2.1107134	6.1034985	0.47764890000000004	6.3336307	0.35594969999999987	0.5021624	1.5016838000000001	0.23837730000000001	0.6108005999999999
24.638952013158246	22.714192799999992	2.3964173	8.0433272	0.2989769	9.0086142	0.31103129999999996	0.28830339999999993	1.2373866	0.3272766999999999	0.8028592000000001
25.11588856699929	15.8329613	2.2642963000000003	4.173589599999999	0.4787695000000001	5.2880174	0.17993889999999993	0.534373	1.5082156999999998	0.5864425	0.8193184
25.59282512084033	11.2969909	1.9175188000000003	3.3490427000000005	0.5804185	1.7701223000000001	0.09462999999999999	0.46820349999999994	1.5836148999999995	0.9334691999999998	0.5999709999999999
26.069761674681374	8.0079693	0.9339909999999999	0.9631641999999999	0.8935451	1.2399234	0.034999800000000005	0.5615657999999999	1.3032472999999996	1.7719782000000002	0.30555449999999995
26.546698228522416	8.5557243	1.1116651	1.2796904999999998	0.6893404999999999	1.5300561000000001	0.044154200000000005	0.549578	1.4687055999999998	1.4884440999999997	0.3940902
27.02363478236346	7.5382962000000004	1.0513027	1.0405802	0.6670021999999999	1.0351720999999998	0.0353647	0.6236245999999999	1.4466214	1.2620907999999997	0.3765374999999999
27.5005713362045	12.466579499999998	2.3598956	2.8802255999999997	0.7473064999999999	1.7557420999999998	0.04986970000000001	0.8918832	1.6258316	1.3708276	0.7849975999999999
27.977507890045544	5.9366097999999985	0.8320293999999998	0.8691317	0.5145913999999999	0.7484368	0.028096199999999998	0.7399803	0.5605062999999999	1.4539198999999998	0.1899178
28.454444443886587	11.9144117	1.3576936	1.3373583	1.3218747	1.1372520999999998	0.09388209999999998	3.2247137	1.0847782	2.1273880999999997	0.22947089999999995
28.93138099772763	6.9190496999999995	0.7068508000000001	0.5209884	0.6395239999999999	0.8727819	0.0268474	1.6223429999999996	0.9024648999999998	1.4454985	0.1817508
29.408317551568672	10.8417213	1.0215187	1.1107457999999997	0.8310872000000002	1.0582647	0.0725599	2.7682425999999998	1.8275800999999998	1.9689782	0.18274409999999996
29.885254105409714	8.744920099999996	1.1693702000000001	1.4028374	0.4905363	1.2439122999999999	0.0586656	1.165994	1.5486375	1.4777514999999999	0.18721530000000003
30.36219065925077	9.8086771	0.7586128999999997	0.741962	1.0739367	0.7767477	0.10492669999999998	3.0628661999999993	1.2087504000000002	1.9380716	0.14280289999999995
30.839127213091814	6.356185599999999	0.6269125	0.45444409999999996	0.5623043999999999	0.38108509999999995	0.46267530000000007	1.6563987999999996	1.0134533	1.1313777	0.06753440000000001
31.316063766932857	7.287177899999999	0.5462641999999999	0.4115585	0.8351155999999998	0.40271940000000006	0.28536259999999997	1.7150796000000001	0.9616969999999999	2.0390718000000003	0.09030919999999999
31.7930003207739	13.533051200000001	1.1652243	0.7648303000000001	1.1937955999999998	1.0751861	0.7704744	4.262667899999999	2.054277	2.0483348	0.1982608
32.26993687461494	12.894782299999997	1.3872046	1.6421008999999998	0.7176256999999999	1.72777	1.5909021999999997	2.5310463	1.7458353999999994	1.3913879999999996	0.1609092
32.746873428455984	13.454080799999998	1.3704932999999997	2.3239128	0.8276930000000001	2.1485285999999997	1.0177287	1.5845417999999996	1.5749177999999997	2.3808851	0.22537970000000004
33.22380998229703	13.429646599999998	0.9394694	1.1013439000000003	1.2262734999999998	1.1501903	0.7459714000000001	2.9547187999999993	1.2415440999999998	3.944089	0.12604619999999997
33.70074653613807	6.7253114	0.4332982999999999	0.34206870000000006	0.5183936	0.3921441999999999	0.15850480000000003	1.3130183	1.2910321999999996	2.2103211	0.06653019999999998
34.17768308997911	6.1866311	0.371957	0.33750279999999994	0.36630949999999995	0.35916929999999997	0.05797029999999999	1.133908	1.9718968999999997	1.5110636999999998	0.0768536
34.654619643820155	15.177754900000002	0.6676633000000001	0.6462541999999999	1.1877222	0.6092096	0.2044223	4.2603197999999995	3.1983155	4.2040643	0.19978369999999998
35.1315561976612	6.3739612999999995	0.29187369999999996	0.2294043	0.46719770000000005	0.1876144	0.07648779999999998	1.5663383	1.8949872	1.610161	0.049896899999999994
35.60849275150224	6.7341367000000005	0.34833149999999996	0.30442509999999995	0.4251140999999999	0.22025629999999996	0.1188121	1.3821299	2.2103368999999997	1.6602233999999998	0.06450739999999999
36.08542930534328	5.720270299999998	0.2784451	0.20928829999999998	0.34040300000000007	0.32492129999999997	0.1264908	1.1278795000000001	1.7603161999999999	1.4642333999999997	0.08829270000000002
36.562365859184325	6.245991100000001	0.3683531000000001	0.3091605	0.40909559999999995	0.29428059999999995	0.1357275	1.3256587	2.1932585999999996	1.0918240000000001	0.1186325
37.03930241302537	3.0105344	0.20413099999999998	0.20035619999999996	0.1317907	0.1573944	0.07552319999999998	0.48726670000000005	1.2385012999999998	0.4549705000000001	0.0606004
37.51623896686641	5.237888099999999	0.304257	0.27785649999999995	0.15716819999999998	0.35160699999999995	0.12047159999999998	0.6142752000000001	2.8333627999999997	0.3458105	0.23307929999999996
37.99317552070745	8.466908499999999	0.5494083	0.42781399999999997	0.26325119999999996	0.4181721	0.1896096	0.8028013	4.809727999999999	0.6636963000000001	0.34242769999999995
38.47011207454851	4.740270499999999	0.3127629	0.2757951	0.187725	0.283941	0.1437346	0.5573237999999999	2.3127829	0.37827899999999987	0.2879261999999999
38.94704862838955	5.827871	0.3123871	0.3739128	0.15940409999999997	0.408468	0.3673912	0.5725478	2.7428472999999998	0.5122767	0.378636
39.423985182230595	6.0595734	0.36142480000000005	0.36799239999999994	0.20174089999999997	0.4236276	0.3741641	0.2951078	2.9630718000000003	0.6066016	0.4658424
39.90092173607164	6.466400800000001	0.23720669999999994	0.6182521999999999	0.1334178	0.530781	1.2206129	0.27353659999999996	2.2636724999999998	0.28209979999999996	0.9068212999999999
40.37785828991268	27.837189499999997	0.5706315999999999	2.4078575000000004	0.3131275	2.1808214999999995	7.629461399999999	0.46742320000000004	4.798518399999999	0.9546697	8.5146787
40.85479484375372	6.3225438	0.16379609999999997	0.45453	0.1945688	0.44396930000000007	1.1143923	0.3433175	2.5106666999999994	0.5977694	0.4995337
41.331731397594766	10.047527200000001	0.26569049999999994	0.43876010000000004	0.5523115	0.3463622	0.6862443999999999	1.3609984999999998	3.7533121	1.2541749999999998	1.3896729
41.80866795143581	20.8071285	0.5203201999999999	1.1136541	0.7003345999999997	0.6854961	1.0349241999999998	1.8615237000000007	7.0742298	1.6593592999999998	6.1572865000000006
42.28560450527685	16.823673600000003	0.47029540000000014	0.7764463000000003	0.46200179999999996	0.7184783	0.8630145999999997	1.5871852	3.3194454000000007	0.7483691	7.8784374999999995
42.76254105911789	23.5903675	1.0065290999999998	0.6278413999999999	0.8029586999999999	0.710839	0.617521	1.4344432	6.021490199999999	3.099368	9.269376899999996
43.239477612958936	10.920796199999998	0.46336219999999995	0.4600518999999999	0.3396628	0.37381539999999996	0.3987948	0.7668999999999999	4.3357334	0.9841063	2.7983694000000003
43.71641416679998	18.765298699999995	0.4237331	0.3526565	0.8834915	0.7708284999999999	1.1132946	4.2438601	7.422547899999999	2.6625518999999995	0.8923346
44.19335072064102	16.405963199999995	0.4706776	0.33167379999999996	0.6949107	0.4650771000000001	0.7863269	3.0203052999999995	7.4162343	1.9706176999999998	1.2501398
44.670287274482064	14.118972900000001	0.32786179999999987	0.3344711	0.5110756999999999	0.4244766	0.8513313999999997	2.0151994999999996	5.7860318	2.8491796000000003	1.0193454
45.147223828323106	13.6805077	0.3727729	0.3743331999999999	0.6472787	0.3909709	1.5166980999999997	1.1007343	7.084226600000001	1.1678665	1.0256265
45.62416038216415	22.096241300000003	0.5853649	0.801978	1.0707779	0.6006151999999999	3.068531899999999	2.6769451999999996	8.0891755	2.9334224	2.2694302999999993
46.10109693600519	21.608501799999996	0.40622949999999997	0.9011174	0.3434471	0.8118118999999999	6.517434799999999	1.2946035	7.7316536	1.5551917	2.0470123000000005
46.57803348984625	7.9225189999999985	0.19227889999999997	0.2704099	0.19762329999999995	0.20214520000000002	1.7949196	0.6872763999999999	2.907391	0.8228654999999999	0.8476092000000002
47.05497004368729	17.631603799999997	0.19499420000000003	0.47114300000000003	0.30286040000000003	0.4454134	8.1417026	1.3517021999999996	4.55332	1.1940557	0.9764122999999998
47.531906597528334	16.607565700000002	0.2552565	0.4309338	0.3730741	0.49528429999999996	4.1775402	2.3019985999999997	5.1363521	2.1995986	1.2375275
48.008843151369376	22.9292605	0.32288540000000004	0.6770016000000001	0.30479829999999997	0.5632645	5.497435499999999	5.984804499999999	4.3822337	4.242871599999999	0.9539654
48.48577970521042	9.043269	0.357757	0.2749009	0.2740257	0.6820254999999998	1.1456880999999997	0.7166577	3.2218051	1.6227165999999997	0.7476923999999999
48.96271625905146	7.0545317999999995	0.19610809999999998	0.1942968	0.1774555	0.6042276	0.7648256999999999	1.459563	1.7240619000000001	0.8948422	1.039151
49.439652812892504	18.121509999999994	0.5316045	0.8835437000000002	0.4062674	0.9656574000000001	1.1889769	1.6135528999999997	3.0883694000000004	3.719678	5.7238598
49.91658936673355	17.275776899999997	0.2643521	0.8822338999999999	0.1918736	0.9978178000000001	6.9524364	0.8501319999999999	1.4057097	0.5047123	5.2265090999999995
50.39352592057459	19.0867671	0.6639424999999999	0.7053003999999998	0.4841671	0.7458856999999999	10.287475599999999	1.4299191999999996	2.6212809999999998	0.795534	1.3532616
50.87046247441563	24.0347813	0.9943491	1.4113395	0.6630199999999999	1.1170166999999998	9.4415052	2.0669543	3.2832824000000005	1.6328723	3.424441799999999
51.347399028256675	17.238969400000002	1.1333962999999998	0.7146188	1.3788369	0.6182842	2.2497103999999997	4.122316799999999	1.633289	2.2576341999999996	3.1308827999999993
51.82433558209772	34.27241629999999	1.0238413	1.0579463999999998	3.4810769999999995	1.0003742	7.727734800000001	7.771972	1.2734010999999996	7.7654350999999995	3.1706343999999995
52.30127213593876	39.9328954	0.5419908999999999	0.7270375000000001	3.7237908999999996	0.5791041	4.930825700000001	15.607045799999998	0.7680222999999998	10.877727499999997	2.1773506999999994
52.7782086897798	88.1398461	0.9573451	1.1799173999999997	4.6824559	1.2553208999999999	17.482259999999997	24.770566300000002	0.9713815	31.259871599999997	5.580727399999999
53.255145243620845	112.0502944	0.7264749999999999	0.9887691999999999	3.805003299999999	1.0009823	11.587776600000002	42.71424059999999	1.6270202000000002	46.735654100000005	2.8643731
53.73208179746189	70.42027879999999	0.6951419999999999	0.8834651	2.2875348000000004	1.0631962999999998	8.3597747	27.193766200000002	2.2741214999999997	25.1151178	2.5481604
54.20901835130293	17.7810389	0.4385613	0.6970838999999999	0.8346799000000001	0.5947112999999999	4.6704208	4.2885088	1.1516803	3.5836856999999998	1.5217069
54.68595490514399	10.1490455	0.3305902	0.5208062999999998	0.3081467	0.3648019	3.0702214000000003	1.0613427999999998	1.0685532000000002	2.0727374000000003	1.3518455999999996
55.16289145898503	21.2820086	1.0602122	0.8759437	0.3271334999999999	0.7092740000000001	10.1260425	2.15511	1.8175792999999998	0.9357694000000001	3.2749440000000005