# energy total s py pz px dxy dyz dz2 dxz dx2
-47.378467616839316	0.0022946	0.00046929999999999997	2.3599999999999998e-05	0.0001322	2.51e-05	5.0499999999999994e-05	0.000294	0.0009796	0.00027319999999999997	4.709999999999999e-05
-46.901531062998274	0.0	0.0	0.0	0.0	0.0	0.0	0.0	0.0	0.0	0.0
-46.42459450915723	0.024691599999999998	0.0077589	0.0003351	0.0022765999999999997	0.0003109	0.00025029999999999996	0.0022226	0.0085986	0.0021409	0.0007977
-45.94765795531619	0.059239499999999994	0.0143027	0.0005440999999999999	0.0031293	0.0005594	0.00048229999999999996	0.0033464999999999996	0.0214005	0.013647	0.0018276999999999998
-45.470721401475146	0.0	0.0	0.0	0.0	0.0	0.0	0.0	0.0	0.0	0.0
-44.993784847634096	0.0	0.0	0.0	0.0	0.0	0.0	0.0	0.0	0.0	0.0
-44.51684829379305	0.0	0.0	0.0	0.0	0.0	0.0	0.0	0.0	0.0	0.0
-44.03991173995201	0.0	0.0	0.0	0.0	0.0	0.0	0.0	0.0	0.0	0.0
-43.56297518611097	0.0	0.0	0.0	0.0	0.0	0.0	0.0	0.0	0.0	0.0
-43.086038632269926	0.0	0.0	0.0	0.0	0.0	0.0	0.0	0.0	0.0	0.0
-42.60910207842888	0.0	0.0	0.0	0.0	0.0	0.0	0.0	0.0	0.0	0.0
-42.13216552458784	0.0	0.0	0.0	0.0	0.0	0.0	0.0	0.0	0.0	0.0
-41.6552289707468	0.0	0.0	0.0	0.0	0.0	0.0	0.0	0.0	0.0	0.0
-41.178292416905755	0.0	0.0	0.0	0.0	0.0	0.0	0.0	0.0	0.0	0.0
-40.701355863064705	0.0	0.0	0.0	0.0	0.0	0.0	0.0	0.0	0.0	0.0
-40.22441930922366	0.0	0.0	0.0	0.0	0.0	0.0	0.0	0.0	0.0	0.0
-39.74748275538262	0.0	0.0	0.0	0.0	0.0	0.0	0.0	0.0	0.0	0.0
-39.27054620154158	0.0	0.0	0.0	0.0	0.0	0.0	0.0	0.0	0.0	0.0
-38.793609647700535	0.0	0.0	0.0	0.0	0.0	0.0	0.0	0.0	0.0	0.0
-38.31667309385949	0.0	0.0	0.0	0.0	0.0	0.0	0.0	0.0	0.0	0.0
-37.83973654001845	0.0	0.0	0.0	0.0	0.0	0.0	0.0	0.0	0.0	0.0
-37.3627999861774	0.0	0.0	0.0	0.0	0.0	0.0	0.0	0.0	0.0	0.0
-36.88586343233636	0.0	0.0	0.0	0.0	0.0	0.0	0.0	0.0	0.0	0.0
-36.408926878495315	0.0	0.0	0.0	0.0	0.0	0.0	0.0	0.0	0.0	0.0
-35.93199032465427	0.0	0.0	0.0	0.0	0.0	0.0	0.0	0.0	0.0	0.0
-35.45505377081323	0.0	0.0	0.0	0.0	0.0	0.0	0.0	0.0	0.0	0.0
-34.97811721697219	0.0	0.0	0.0	0.0	0.0	0.0	0.0	0.0	0.0	0.0
-34.501180663131144	0.0	0.0	0.0	0.0	0.0	0.0	0.0	0.0	0.0	0.0
-34.0242441092901	0.0	0.0	0.0	0.0	0.0	0.0	0.0	0.0	0.0	0.0
-33.54730755544906	0.0	0.0	0.0	0.0	0.0	0.0	0.0	0.0	0.0	0.0
-33.07037100160802	0.0	0.0	0.0	0.0	0.0	0.0	0.0	0.0	0.0	0.0
-32.59343444776697	0.0	0.0	0.0	0.0	0.0	0.0	0.0	0.0	0.0	0.0
-32.116497893925924	0.0	0.0	0.0	0.0	0.0	0.0	0.0	0.0	0.0	0.0
-31.63956134008488	0.0	0.0	0.0	0.0	0.0	0.0	0.0	0.0	0.0	0.0
-31.16262478624384	0.0	0.0	0.0	0.0	0.0	0.0	0.0	0.0	0.0	0.0
-30.685688232402796	0.0	0.0	0.0	0.0	0.0	0.0	0.0	0.0	0.0	0.0
-30.208751678561754	0.0	0.0	0.0	0.0	0.0	0.0	0.0	0.0	0.0	0.0
-29.731815124720704	0.0	0.0	0.0	0.0	0.0	0.0	0.0	0.0	0.0	0.0
-29.25487857087966	0.0	0.0	0.0	0.0	0.0	0.0	0.0	0.0	0.0	0.0
-28.77794201703862	0.0	0.0	0.0	0.0	0.0	0.0	0.0	0.0	0.0	0.0
-28.301005463197576	0.0	0.0	0.0	0.0	0.0	0.0	0.0	0.0	0.0	0.0
-27.824068909356534	0.0	0.0	0.0	0.0	0.0	0.0	0.0	0.0	0.0	0.0
-27.34713235551549	0.0	0.0	0.0	0.0	0.0	0.0	0.0	0.0	0.0	0.0
-26.87019580167445	0.0	0.0	0.0	0.0	0.0	0.0	0.0	0.0	0.0	0.0
-26.393259247833406	0.0	0.0	0.0	0.0	0.0	0.0	0.0	0.0	0.0	0.0
-25.916322693992356	0.0	0.0	0.0	0.0	0.0	0.0	0.0	0.0	0.0	0.0
-25.439386140151313	0.0	0.0	0.0	0.0	0.0	0.0	0.0	0.0	0.0	0.0
-24.96244958631027	0.0	0.0	0.0	0.0	0.0	0.0	0.0	0.0	0.0	0.0
-24.48551303246923	5.11e-05	7.000000000000001e-06	2e-07	2.6000000000000005e-06	1.2999999999999998e-06	1.2000000000000002e-06	3.3e-06	2.35e-05	1.0499999999999998e-05	1.4999999999999998e-06
-24.008576478628186	0.0005097999999999999	7.46e-05	4.1e-06	2.4599999999999995e-05	7.6e-06	9.3e-06	5.0799999999999995e-05	0.0002195	0.00010439999999999998	1.4899999999999998e-05
-23.531639924787143	0.003314	0.00048719999999999997	1.28e-05	0.00021299999999999995	3.460000000000001e-05	5.130000000000001e-05	0.0002666	0.0017004	0.0004936	5.45e-05
-23.0547033709461	0.17792560000000002	0.0269238	0.0007473999999999998	0.0153343	0.0009035	0.0013938999999999998	0.017556	0.09169619999999999	0.0187557	0.0046148
-22.577766817105058	0.5185171	0.052938599999999995	0.0023581	0.0261234	0.0036221	0.008694799999999999	0.06980089999999999	0.26035329999999995	0.0795497	0.0150762
-22.100830263264015	1.0790691999999997	0.080543	0.00586	0.0386629	0.008601	0.040248	0.2316671	0.3996956	0.23866929999999997	0.035122299999999995
-21.623893709422966	0.6578169	0.0413392	0.003889	0.0228654	0.0065118	0.0321657	0.1508636	0.21577849999999998	0.16110479999999996	0.023298899999999997
-21.146957155581923	0.15851819999999997	0.012820100000000001	0.0008724	0.0107342	0.0012460999999999998	0.0048866	0.0236953	0.0616559	0.0339043	0.008703299999999999
-20.67002060174088	0.0	0.0	0.0	0.0	0.0	0.0	0.0	0.0	0.0	0.0
-20.193084047899838	0.0	0.0	0.0	0.0	0.0	0.0	0.0	0.0	0.0	0.0
-19.716147494058795	0.0	0.0	0.0	0.0	0.0	0.0	0.0	0.0	0.0	0.0
-19.239210940217752	0.0	0.0	0.0	0.0	0.0	0.0	0.0	0.0	0.0	0.0
-18.76227438637671	0.0	0.0	0.0	0.0	0.0	0.0	0.0	0.0	0.0	0.0
-18.285337832535667	0.0	0.0	0.0	0.0	0.0	0.0	0.0	0.0	0.0	0.0
-17.808401278694618	0.0	0.0	0.0	0.0	0.0	0.0	0.0	0.0	0.0	0.0
-17.331464724853575	0.0	0.0	0.0	0.0	0.0	0.0	0.0	0.0	0.0	0.0
-16.854528171012532	0.0	0.0	0.0	0.0	0.0	0.0	0.0	0.0	0.0	0.0
-16.37759161717149	0.0	0.0	0.0	0.0	0.0	0.0	0.0	0.0	0.0	0.0
-15.900655063330449	0.0	0.0	0.0	0.0	0.0	0.0	0.0	0.0	0.0	0.0
-15.423718509489403	0.0	0.0	0.0	0.0	0.0	0.0	0.0	0.0	0.0	0.0
-14.94678195564836	0.0	0.0	0.0	0.0	0.0	0.0	0.0	0.0	0.0	0.0
-14.469845401807317	0.0	0.0	0.0	0.0	0.0	0.0	0.0	0.0	0.0	0.0
-13.992908847966275	0.0	0.0	0.0	0.0	0.0	0.0	0.0	0.0	0.0	0.0
-13.515972294125232	0.0	0.0	0.0	0.0	0.0	0.0	0.0	0.0	0.0	0.0
-13.03903574028419	0.0	0.0	0.0	0.0	0.0	0.0	0.0	0.0	0.0	0.0
-12.56209918644314	4.839999999999999e-05	1.3e-05	2.9999999999999993e-07	4.7e-06	1.2000000000000002e-06	2e-06	5.4e-06	7.5e-06	1.0199999999999999e-05	4.1e-06
-12.085162632602097	0.0001333	2.0199999999999996e-05	1.2999999999999998e-06	9.4e-06	1.2999999999999996e-06	3.8e-06	2.0399999999999994e-05	5.15e-05	1.7799999999999996e-05	7.599999999999999e-06
-11.608226078761055	0.0012766	0.00029650000000000005	1.2699999999999999e-05	8.790000000000002e-05	2.8299999999999993e-05	6.54e-05	0.00017310000000000003	0.0002356	0.0003112	6.589999999999999e-05
-11.131289524920012	0.0052367	0.0016320000000000006	5.829999999999999e-05	0.00042829999999999995	0.00011159999999999999	0.00022799999999999993	0.0005979999999999999	0.000863	0.0010642999999999998	0.0002532
-10.65435297107897	0.21945129999999996	0.0482887	0.0014592000000000001	0.013944799999999997	0.0039937	0.0084543	0.0238832	0.05615699999999999	0.04746499999999999	0.015805399999999997
-10.177416417237927	0.6396524	0.1902316	0.0050854	0.040790299999999995	0.0130608	0.025550999999999997	0.0583961	0.14312149999999998	0.1220507	0.041365
-9.700479863396884	10.786539999999999	9.566240800000001	0.0246713	0.33407200000000004	0.027833	0.068885	0.13866969999999998	0.319407	0.22117189999999998	0.08558930000000001
-9.223543309555842	0.9290041	0.4882154999999999	0.008563999999999999	0.0555027	0.01649	0.025183299999999995	0.04825139999999999	0.1107237	0.1368816	0.0391919
-8.746606755714799	9.364924499999999	7.1982687	0.14868099999999998	0.5885591	0.1269054	0.29476779999999997	0.057659499999999995	0.7455103	0.0500475	0.1545252
-8.26967020187375	39.704696299999995	26.981127300000004	1.9713953000000002	0.8671625	1.9875432000000004	0.11025029999999998	1.4736952999999997	0.7884614999999998	1.4762193999999997	4.0488415
-7.792733648032707	10.4763381	4.794086900000001	0.37736210000000003	0.5527037	0.4161745	1.0718912	0.5990468999999999	1.2954921000000001	0.6994117999999997	0.6701689
-7.315797094191664	49.55361069999999	21.6880052	1.4239597000000004	2.7004459999999995	1.3926211000000002	1.2365423999999998	4.811862199999999	6.4922141	4.825389200000001	4.9825707999999995
-6.8388605403506215	120.2538309	26.429509800000005	3.280565699999999	1.8634511	3.3479968	24.848646600000002	14.228654500000003	13.749577400000002	14.947089200000002	17.558339799999995
-6.361923986509579	140.93334080000002	22.734022399999997	3.214022	3.4725662	3.1672619000000006	14.4436121	24.7389727	16.448396499999998	23.0741039	29.6403831
-5.884987432668536	268.2559464	20.891587499999986	3.3479492999999994	2.9218021000000003	3.3286001999999995	43.3990604	49.85025689999999	36.3592427	50.94568380000002	57.21176349999999
-5.408050878827494	228.46224740000002	12.0853922	5.926112999999999	4.261962300000001	5.990659199999999	39.007446200000004	35.9997492	48.73676149999999	35.5145881	40.939575700000006
-4.931114324986451	237.72914479999991	3.7765154	3.9902830999999996	5.8662762	3.9955485000000004	41.90658110000001	67.2564335	18.635325199999997	68.33842810000002	23.963753699999998
-4.454177771145402	346.4992377	3.2067733	8.4269348	4.6963877	8.413498800000001	61.63102329999999	42.8436968	73.07021080000001	41.483041699999994	102.72767049999999
-3.9772412173043596	259.4850048	5.4151778	4.486617899999999	6.2580782	4.3090392	37.2056452	45.534570099999996	54.7188792	45.62994069999999	55.92705649999999
-3.500304663463317	337.0844584000001	8.032016299999999	8.6110734	4.959148999999998	8.7016454	61.882613100000015	59.91089199999999	39.2236481	58.14601069999999	87.61741039999997
-3.0233681096222744	287.25372269999997	4.767939899999999	3.7156404000000007	4.2366228999999995	3.7482021999999997	56.487661100000004	62.0397105	49.0691564	65.45109729999997	37.737692
-2.546431555781232	467.0606125000001	6.6353145000000024	7.7565580999999995	4.0696840000000005	7.6798598	74.37015779999997	73.0233233	113.45564789999999	72.1445941	107.92547299999995
-2.069495001940189	297.4513601	4.964191199999999	1.9393605999999997	2.789613899999999	2.0573981000000003	104.89855919999998	34.8090019	81.57159260000002	35.0509424	29.370700199999995
-1.5925584480991466	286.38707919999996	3.1047913000000005	3.3773370999999996	2.670528499999999	3.3050764000000004	59.2817174	58.951175799999994	79.5348005	57.9393613	18.222290899999997
-1.115621894258104	276.32950989999995	5.669667399999999	2.0178477000000004	2.928315200000001	2.1229712999999992	83.2022756	50.57606769999998	64.35058129999999	51.2581178	14.203665899999997
-0.6386853404170614	318.05226799999997	3.5740523000000004	1.4683026999999997	2.0776246	1.4159654999999998	76.22430319999998	83.1952157	46.5228045	81.60910279999997	21.964896700000004
-0.16174878657601166	196.9215756	1.9913265000000002	2.5695051999999996	5.0221606	2.6037695999999997	24.0171614	57.544390899999996	21.609292	57.929124	23.6348454
0.31518776726503095	106.63687169999999	6.4137147	4.9404284	6.965120300000001	4.9407672	6.8044175	17.239685599999998	11.061467	17.2583661	31.012904900000006
0.7921243211060736	45.515389899999995	1.4859650999999998	3.2853673999999997	5.6517817	0.2996366	2.0297848	2.9063358999999998	4.7300083	3.0850893999999993	22.0414207
1.2690608749471162	32.5088208	1.0197766999999998	2.2416266	5.668626299999999	5.196421399999999	0.1811185	0.42291140000000005	7.905369499999999	0.6563765	9.2165939
1.745997428788159	49.41451109999999	3.1292986	2.2371056	1.9855575999999997	2.1633264	0.9510687000000001	2.8181495	13.157530000000001	2.9144940999999993	20.0579806
2.2229339826292014	116.2652885	9.6306982	6.6878328	3.4149456	6.6302024	13.433891400000002	13.1559009	16.375860699999997	12.053758599999998	34.8821979
2.699870536470244	37.2888422	2.8303238	1.6823674999999998	4.6898558	1.9046827	2.5796708	6.485271900000001	6.541521100000001	7.407658799999999	3.1674898
3.1768070903112866	98.23808450000001	6.178868499999999	15.020547900000002	2.6666866	14.789917599999995	15.084489099999999	6.8895592	7.647953	6.734592499999999	23.2254701
3.6537436441523363	55.5178664	5.458306499999999	3.6307139	5.0032548	4.0430082999999994	8.2482334	9.370268099999999	4.6011308999999985	9.647442	5.515508499999999
4.130680197993379	67.64248769999999	8.175976799999999	4.1178969	6.746480700000001	3.6713677999999987	6.9960297	9.2023569	5.2579552000000005	9.3068466	14.1675771
4.6076167518344215	46.7367393	5.138789399999999	0.8260682000000003	7.2921274	0.7683311	0.6870893	8.9523376	5.854449099999998	9.785112699999999	7.4324344999999985
5.084553305675464	58.4288083	5.0197776	8.6462454	5.805585799999999	8.431638499999998	2.7411079	9.713935900000001	2.4680494	9.7043489	5.898118899999998
5.561489859516507	22.5782945	3.2755928	0.75397	2.6839475	1.0142493000000001	0.9789076999999999	4.366781799999999	1.8095549000000002	4.8194441999999995	2.8758463
6.038426413357549	43.265874499999995	5.5406695	1.6868836	4.300353299999999	1.4443492000000002	0.7868040999999999	11.200804900000003	3.7375302999999995	10.3425894	4.2258902
6.515362967198592	55.5534346	8.034114699999998	2.9417573	5.6296637	3.0478324999999997	1.3478718	11.792087399999996	3.8126982	12.222420199999998	6.724988800000001
6.992299521039635	61.099588299999986	11.5356264	4.200706299999999	6.420612799999999	5.2662204	0.8590786999999998	8.0117634	4.874218	7.4017652	12.529597099999998
7.469236074880677	65.93125169999999	10.424662199999998	7.556120900000001	6.4880823	6.021538700000001	2.0688834999999997	9.9018175	7.148633200000001	11.405523299999999	4.915990099999999
7.946172628721727	70.4923783	19.989816200000003	2.6522328000000006	5.305126100000002	3.2589384	5.624285099999998	5.761859299999999	16.927881799999998	6.497906300000001	4.474332299999999
8.423109182562769	61.345237	14.885482199999998	3.5753236	3.7442049999999996	3.5606762999999995	7.135020100000001	5.711361899999999	12.555762499999998	4.5306692	5.6467362
8.900045736403811	57.3547395	8.043362900000002	6.4446498000000005	3.8397045	5.767748299999999	1.2812466999999998	5.1984906	10.149953499999999	4.4950952	12.134488000000001
9.376982290244854	97.1790856	6.676182600000001	14.243906699999997	5.578831199999999	14.330814100000001	2.2501453999999996	8.6110895	13.228077100000002	8.447479699999999	23.8125593
9.853918844085896	64.0741168	7.8282383	6.0940884	8.206297199999996	6.231999799999999	4.4636909000000005	7.9117951999999985	10.5009367	7.537014199999999	5.3000561
10.330855397926939	85.84102279999996	11.4158953	7.933194599999999	11.001540499999999	8.0500367	9.689548199999999	7.174458799999999	8.552488100000001	8.054424999999998	13.969435599999999
10.807791951767982	74.3744746	6.760785599999998	6.969405999999998	9.3268621	7.388518999999999	6.819771599999998	7.239479199999999	10.881738599999998	7.3705319	11.617380599999997
11.284728505609024	74.1940905	5.026096	8.9364729	7.855213699999998	9.0354374	6.8073904999999995	10.314157699999999	13.284809199999998	8.793584	4.140929099999999
11.761665059450076	96.04455850000002	8.9897838	6.868259099999999	14.344337700000002	6.760099500000001	14.8202934	9.727065499999998	19.0114493	9.4250201	6.0982501000000005
12.238601613291118	112.8930739	9.526219499999998	8.788175200000001	19.6936712	9.718394899999998	16.6851094	11.3597071	14.725290399999999	11.530620899999997	10.865885299999999
12.715538167132161	63.739569	5.6670003	5.7115314	12.821371599999999	5.6627341	5.052114400000001	8.2902754	6.506129000000001	8.164437899999998	5.8639749
13.192474720973204	48.3592578	5.0331489	4.4390391000000005	8.9892865	4.1627303	3.5357459000000007	5.4320932	8.0474607	5.0008289	3.7189242999999994
13.669411274814246	51.877907199999996	4.8892035	4.770044099999999	9.5712764	4.330741299999999	3.7672725	6.430712099999998	7.552569599999999	5.955451299999999	4.610636399999999
14.146347828655289	68.474613	4.0840049	13.8864019	8.7654446	12.406810399999998	4.0666978	7.3705688	5.6815796	6.4936084	5.719496600000001
14.623284382496331	70.7204459	5.140956500000001	6.615088299999999	13.1625766	7.829922099999999	7.9087515999999995	7.014866799999999	10.012950199999999	7.1744173	5.8609165
15.100220936337374	115.6654009	6.6328572999999995	13.845786099999996	13.625070900000003	15.2046086	21.162140799999996	6.336268899999999	21.4237113	6.901650599999998	10.533306399999997
15.577157490178417	137.46998179999997	11.7866938	20.946591599999994	14.850709999999998	19.537478199999995	20.812919499999992	7.174590400000001	24.778186800000004	7.7483168	9.8344947
16.054094044019465	102.67361359999998	5.5530517	18.7814093	13.837170399999998	19.664136999999997	4.021426099999999	7.5881476999999995	17.2539545	7.867834599999999	8.1064823
16.531030597860507	57.14029459999999	2.6757477999999995	9.004974899999999	9.1108987	7.6038545	4.920092899999999	5.791829699999999	5.8209786999999995	5.221237899999999	6.990679499999999
17.00796715170155	104.56976149999998	2.9686145999999995	19.2254995	15.049154899999998	20.062178	24.666239099999995	5.790679399999999	6.176675299999999	6.2514275999999995	4.379293099999999
17.484903705542592	42.852509899999994	2.9239701000000005	3.7708063000000003	12.271773099999997	3.3394109999999997	3.3211183999999996	4.167433199999999	6.593231600000001	4.217360999999999	2.2474051999999998
17.961840259383635	43.597671099999985	2.0213389999999998	3.2466689000000004	12.747909099999998	2.873395899999999	2.7449024999999994	6.0294152	6.3233675	6.209162399999999	1.4015106
18.438776813224678	110.5845435	2.1467908	19.799920999999998	13.9916769	21.172704699999993	11.030476399999998	16.839257099999998	6.531377	17.2416503	1.8306893000000002
18.91571336706572	42.0663012	1.7079954999999996	5.1014698	9.5130594	3.4873258	4.163466499999999	5.806737599999999	6.1676091	4.7438695	1.374768
19.392649920906763	38.759163900000004	2.3251617999999996	2.4595844999999996	8.8142468	2.8447818999999996	3.593466399999999	6.176971600000001	6.3325467	4.5112426999999995	1.7011614999999998
19.869586474747805	63.87442689999999	9.219602	3.7885008999999994	15.6596887	4.5360106	5.8620976	7.7248994	7.106448199999999	8.456621499999999	1.5205579999999999
20.346523028588848	38.324776	2.3574208999999997	3.208726299999999	8.717877	3.3401215	2.7724916	4.8395437999999995	5.950179	5.0571944	2.0812214999999994
20.82345958242989	61.01457430000001	2.0004381999999996	12.464140099999998	6.2874110000000005	12.342246899999997	7.358088699999999	7.4797842	3.7412276999999996	7.205455399999999	2.1357821
21.300396136270933	90.9477927	4.2443853	8.551866799999999	11.2112446	8.232860499999997	10.068839899999999	18.073097	4.662784299999998	18.4103111	7.492403199999999
21.777332690111976	59.55716799999999	7.3333307	6.9203577	9.6789545	6.480465399999999	8.1964499	6.488557299999999	6.0198036	5.491736399999999	2.9475125
22.254269243953033	47.69189039999999	5.5026641	5.239253	7.1276356	6.0404407	7.1018406999999995	3.8607053999999983	5.8884639000000005	4.615539399999999	2.3153475999999995
22.731205797794075	39.32210399999999	4.479030199999999	4.535747799999999	5.762713300000001	4.0068820999999994	6.6787624999999995	3.9923244	5.1429309	3.066498099999999	1.6572147000000004
23.208142351635118	49.023291199999996	3.5002066	7.4597524	4.4170815999999995	6.620644500000001	10.248441399999999	4.9209912	4.4915408999999995	5.196926499999999	2.1677060999999997
23.68507890547616	95.9481438	5.743551899999999	16.298932700000005	4.271462899999999	17.1072896	25.373681699999995	8.5537599	6.862894899999998	8.899275899999997	2.8372943
24.162015459317203	72.98943460000001	6.5707865000000005	10.1523649	6.1075485	7.4684305	17.429224700000002	7.2276279	6.340326899999998	7.926655900000001	3.7664688
24.638952013158246	84.4189191	6.1130773000000005	7.4477914	7.0816848	8.8628498	15.4479763	9.548089399999999	7.055936999999999	9.5172874	13.344225700000003
25.11588856699929	114.54742750000003	8.4936868	10.082847300000001	11.7573745	12.040838199999998	17.444017	10.816570000000002	13.423043900000001	10.374291299999998	20.1147585
25.59282512084033	94.94999549999999	6.983511100000001	10.8685067	8.0344018	7.8662049000000005	10.494710600000001	9.872048899999998	12.684027699999998	10.643859399999998	17.5027244
26.069761674681374	71.1733946	4.3427989	7.7216156	5.2057611	10.094489099999999	6.520777299999999	10.619196900000002	7.9218171	10.805045499999999	7.941893099999999
26.546698228522416	46.2668388	3.3380389999999998	4.1050317000000005	3.769409899999999	5.1761038	5.867584699999999	6.907936199999998	4.8321468	8.4470494	3.8235373
27.02363478236346	56.5196299	4.0681324	5.417054699999999	3.8693224999999996	4.8506562	4.936943899999999	9.5753351	6.098921199999999	9.5669016	8.1363623
27.5005713362045	58.672851599999994	5.532853899999999	5.365314799999999	4.4378630999999995	4.790854199999999	5.6407761	9.184379799999999	7.537212600000001	8.693728399999998	7.4898687
27.977507890045544	47.903469900000005	4.7632046	2.7010221	4.9848593999999995	2.7590775999999995	4.3372712	6.330128399999999	7.8788993	6.9210256999999995	7.227981600000001
28.454444443886587	43.4635693	3.0370045999999995	2.1538756999999995	4.930561	1.7944716999999994	4.8407504999999995	7.2801957999999996	7.8491281	6.4766616	5.1009203
28.93138099772763	58.11239969999999	3.7818298000000006	3.0150894000000004	5.133800099999999	2.8942717	6.290208699999999	8.0168384	14.221681500000003	8.466348899999998	6.2923312
29.408317551568672	85.3558143	5.9007301	4.372490599999999	4.627752499999999	4.3557039	23.0616163	8.2870465	19.2058718	8.0283432	7.5162594
29.885254105409714	55.433146	5.089510099999999	3.1804139999999994	4.822841899999999	3.4010293999999996	11.738715299999999	6.330157699999999	11.4781164	5.615653599999999	3.7767076
30.36219065925077	41.5964007	3.0318995	1.9366803999999997	4.0888135	2.0923621000000003	6.636286499999999	4.882882899999999	8.736232999999999	5.3568652000000005	4.8343776
30.839127213091814	66.23002500000001	3.1906305999999995	3.9330566	6.6225493	2.8906554	13.440122399999998	10.321182199999997	10.070302400000001	11.2329847	4.5285414
31.316063766932857	60.65148009999999	2.2542403999999996	2.8425164	4.048071199999999	3.7489284	13.042890399999997	10.2949511	6.806374199999999	12.747061299999999	4.8664467
31.7930003207739	46.210515599999994	2.0291048999999997	1.1951479999999999	3.794370799999999	1.2687701	4.6156525	13.349819399999998	6.149440199999999	10.239209999999998	3.5689997
32.26993687461494	41.45846050000001	2.0036052	1.1744609	3.670491	1.1750829	6.330969	9.5033392	5.816781	8.912723999999999	2.8710072999999996
32.746873428455984	64.76512910000001	2.6751365	1.8122938999999998	4.063745999999999	1.9789290999999998	21.1215498	9.757180199999999	6.874527599999998	10.564240299999998	5.917525699999999
33.22380998229703	64.25161979999999	3.611120899999999	2.8842953000000002	4.4653220000000005	2.8743101	20.1527412	9.256594000000002	7.0604277	9.308667999999999	4.6381406
33.70074653613807	62.20089449999998	5.343067	4.0326281999999996	3.2349037000000003	4.1945938	16.081466799999998	10.003479500000001	7.221527599999998	9.313218599999999	2.7760092999999997
34.17768308997911	48.644759900000004	2.6844543999999995	2.575587	2.9737638	2.2810118	10.445129900000003	10.650317399999999	5.7547977999999995	9.5315894	1.7481083999999996
34.654619643820155	47.174972600000004	2.2924766	3.347333	2.2074371999999998	3.7633636999999998	16.3478063	5.592602500000001	6.282041899999999	5.9623162999999995	1.3795951000000002
35.1315561976612	59.910138200000006	5.052056599999999	2.975338099999999	3.0797929	2.7506040999999994	16.264587399999996	6.9470952	11.822490899999996	7.3414719999999996	3.676701
35.60849275150224	63.6752644	9.282617300000002	2.2762592	3.5803041999999996	2.5105983999999997	7.206786300000001	8.774630499999999	14.6921079	6.839740400000001	8.5122202
36.08542930534328	56.53860510000001	4.269814899999999	3.4908313	3.2591919000000003	3.3682652999999996	6.445208299999999	9.4653014	10.28683	10.733374899999998	5.2197871
36.562365859184325	52.22300130000001	2.4198617	4.3014131	3.162947300000001	4.4665845	4.803879199999999	8.822732499999999	6.205793399999999	8.7081901	9.3315995
37.03930241302537	66.4175476	2.8981051999999994	6.2587208	4.476351899999999	5.9989696	7.279257100000001	10.4468449	7.3044785999999995	9.916292299999999	11.8385272
37.51623896686641	71.5254686	3.3036146	6.5784625	8.248268199999998	6.9274754000000005	8.4122589	7.806864000000001	11.9674764	8.1332251	10.1478235
37.99317552070745	50.40693569999999	2.8300197999999996	4.867536799999999	4.0483544	4.279507999999999	7.2324679	5.2283634999999995	7.298403899999999	6.573914899999999	8.048366499999998
38.47011207454851	79.8792138	4.556011	7.1901408	5.433838499999999	8.5198119	9.934159600000001	9.497052799999999	10.522820799999998	8.1540819	16.071296499999995
38.94704862838955	83.4976334	5.4864763000000005	10.12574	7.627902400000002	8.514952899999999	7.6796609999999985	8.7967965	14.6332358	7.269428799999999	13.363439699999999
39.423985182230595	71.4298751	4.4094052	7.8362236	7.022589199999999	8.0869276	6.463257499999999	7.2411326	13.643528999999996	7.236062799999998	9.4907476
39.90092173607164	51.43774169999999	3.1402961	5.2908134	6.0431539999999995	4.768745200000001	4.24211	5.443441199999999	9.625324799999998	5.645432800000001	7.2384242
40.37785828991268	53.742865599999995	1.7705757999999998	5.0795156	2.6290382	6.1618577	2.5011658000000003	4.9952745	5.055265199999999	4.621536	20.928636799999996
40.85479484375372	25.670986999999997	1.4439473999999999	2.3844418999999997	2.1451553999999997	2.0610150000000003	2.8142491	4.158324099999999	3.9855641	3.749974299999999	2.9283156999999993
41.331731397594766	43.610968	1.832233	4.0474706000000005	2.7373071999999996	4.470415	7.472977799999999	6.9901357	4.8984366999999995	7.841981799999999	3.3200101999999996
41.80866795143581	48.50071909999999	1.993447	4.3283391	2.1418914	4.848482699999999	10.2729317	6.877082	5.101613699999999	9.2059968	3.7309346999999993
42.28560450527685	40.171796799999996	2.2096924000000002	3.1181472	1.6896981999999996	3.0804078	6.3874498	7.618410299999998	5.6698352	6.577097799999999	3.8210581
42.76254105911789	43.1541819	2.4492143	3.9370503999999995	1.5602388999999999	3.3240692999999997	6.7758503	7.734605599999999	7.2780329	6.4396605000000005	3.6554596999999998
43.239477612958936	33.8994674	3.3513723	2.0606101999999997	1.4775744999999998	2.2444977	5.5641317	5.439518399999999	5.243409199999999	5.236094	3.2822594000000005
43.71641416679998	59.82053139999999	7.63934	3.2886618999999992	2.7915427999999998	3.3443727	6.310989299999999	10.2554868	9.6608866	10.581966999999999	5.947284299999998
44.19335072064102	54.72046889999999	5.776227099999998	3.8854835	2.7077303	3.7757451999999994	5.2151699	9.385333600000001	8.2129865	10.1060721	5.6557207
44.670287274482064	50.03711019999999	4.287618799999999	4.2922595	2.5157963000000003	4.1016024	4.719266999999999	9.547905599999998	6.467399399999999	9.5481892	4.557072
45.147223828323106	42.51268399999999	3.4797714	3.378420699999999	1.8636834999999998	3.4011727	7.105108999999999	7.166297399999999	4.254662	7.151655299999998	4.711912
45.62416038216415	62.51403	4.820608099999999	5.850374699999999	2.7675743999999995	4.957862899999999	8.749948799999997	11.134957499999999	6.241907200000001	10.446101799999997	7.5446946
46.10109693600519	47.908442099999995	2.7460579	3.7675891999999997	2.3424963999999995	3.4843830999999996	9.857371599999999	8.993778599999999	4.314376199999999	8.315670599999999	4.086718499999999
46.57803348984625	49.09615849999999	4.251304900000001	3.1470973	1.8838692000000001	4.1156932	6.3810669	9.176352	4.3503188999999995	11.3500561	4.4403999999999995
47.05497004368729	49.767501800000005	2.9379533	3.3406424999999995	2.2370041	3.8381048	7.414011399999999	11.142477200000002	4.386008199999999	9.9765007	4.4947996
47.531906597528334	44.291979600000005	2.9895053000000003	2.6302184	2.4392576999999998	2.7024205	5.4562284000000005	7.675975900000001	5.2989681	9.6608495	5.4385558
48.008843151369376	33.0296585	2.6032038	1.9395168	1.7879193	2.0058096	4.8336428	5.797530299999998	4.0792379	5.952980099999999	4.029817899999999
48.48577970521042	38.871884599999994	4.527256899999999	3.1398138999999996	1.9007259	2.8628524	2.8267537999999997	5.6062093	6.5221989	5.364341	6.121732499999999
48.96271625905146	54.162109900000004	6.748740599999998	4.4637332	2.7719052000000004	4.634412799999999	4.281084	8.1801152	7.953921800000001	6.7710574	8.3571397
49.439652812892504	31.615434099999995	2.9051590999999997	3.0749543	1.5346774999999997	2.7156545	3.3356901000000003	4.5101999	3.9090162999999998	4.466606199999999	5.1634762
49.91658936673355	27.2646324	2.0459874	2.5656073999999998	1.4095576999999997	3.0184298	3.1953051999999995	4.220503999999999	2.1134961	4.158618000000001	4.537126799999999
50.39352592057459	43.097177800000004	2.8445605	3.9463911999999994	1.6669824	4.0458259	8.1584404	6.939058800000001	3.5807480000000003	6.402056699999999	5.5131139
50.87046247441563	29.619829999999993	2.0808993	2.4303877999999997	1.2129876	2.3614634999999997	6.2841306999999995	4.0116704	3.2608296	4.4327104	3.5447507
51.347399028256675	23.381096	2.1735680999999993	1.8445916	1.3307921999999999	1.9418329	2.2214084	3.5524826000000003	2.9714589999999994	4.4542981	2.8906631
51.82433558209772	18.8937322	2.5367460999999993	1.1668410999999999	0.9581831999999998	1.1708809999999998	1.5611999	2.5809964	4.376176399999999	2.3236315	2.2190765999999997
52.30127213593876	27.009209499999997	3.875969	1.3692599	1.9257693	1.3203497	1.8613893	3.8393428	6.518531499999997	3.6681261999999997	2.6304717999999996
52.7782086897798	36.1995374	4.456624199999999	2.1184402	2.2695236999999993	2.3347081000000003	2.3286363999999993	5.3119704	7.489919199999999	5.349365099999999	4.5403500999999995
53.255145243620845	29.199946399999995	3.1814989999999996	2.1318643999999995	1.2786905	2.6434984	1.5167307999999995	3.7984801999999993	4.4605157	3.571410199999999	6.617257199999998
53.73208179746189	44.56584569999999	3.811965499999999	4.452785400000001	1.1445229000000001	5.293872299999999	1.1846461999999998	5.5055724999999995	4.5614673	5.3681353	13.242878299999997
54.20901835130293	43.708391199999994	4.308642600000001	4.608319299999999	1.5231355999999998	4.210991699999999	1.4448414	4.7700328999999995	4.6178301	5.400033399999999	12.824564200000001